#------------------------------------------------------------------------------
#$Date$
#$Revision$
#$URL$
#------------------------------------------------------------------------------
#
# This file is available in the Crystallography Open Database (COD),
# http://www.crystallography.net/. The original data for this entry
# were provided by IUCr Journals, http://journals.iucr.org/.
#
# The file may be used within the scientific community so long as
# proper attribution is given to the journal article from which the
# data were obtained.
#
data_2105804
loop_
_publ_author_name
'F\'abry, Jan'
'Havl\'ak, Lubom\'ir'
'Du\<sek, Michal'
'Van\<ek, P\<remysl'
'Drahokoupil, Jan'
'Jurek, Karel'
_publ_section_title
;
 Structure determination of KLaS~2~, KPrS~2~, KEuS~2~, KGdS~2~, KLuS~2~,
 KYS~2~, RbYS~2~, NaLaS~2~ and crystal-chemical analysis of the group 1
 and thallium(I) rare-earth sulfide series
;
_journal_coeditor_code           BP5060
_journal_issue                   2
_journal_name_full               'Acta Crystallographica Section B'
_journal_page_first              360
_journal_page_last               371
_journal_paper_doi               10.1107/S2052520613034574
_journal_volume                  70
_journal_year                    2014
_chemical_formula_moiety         'Rb1 Y1 S2'
_chemical_formula_sum            'Rb S2 Y'
_chemical_formula_weight         238.49
_chemical_name_systematic
;
Rubidium yttrium sulfide
;
_space_group_IT_number           166
_symmetry_cell_setting           trigonal
_symmetry_space_group_name_Hall  '-R 3 2"'
_symmetry_space_group_name_H-M   'R -3 m :H'
_cell_angle_alpha                90
_cell_angle_beta                 90
_cell_angle_gamma                120
_cell_formula_units_Z            3
_cell_length_a                   4.0444(3)
_cell_length_b                   4.0444(3)
_cell_length_c                   22.8267(16)
_cell_measurement_reflns_used    1155
_cell_measurement_temperature    301.5
_cell_measurement_theta_max      29.0170
_cell_measurement_theta_min      5.3630
_cell_volume                     323.36(4)
_computing_cell_refinement
;
<i>CrysAlis PRO</i>
;
_computing_data_collection
;
<i>CrysAlis PRO</i> (Agilent Technologies, 2012)
;
_computing_data_reduction
;
<i>CrysAlis PRO</i>
;
_computing_molecular_graphics
;
<i>DIAMOND 3.0</i>
(Brandenburg, K. - Crystal Impact, GbR, Bonn,
Germany, 2010).
;
_computing_publication_material
;
JANA2006 (Pet\<r\'i\<cek <i>et. al.</i>, 2006)
;
_computing_structure_refinement
;
JANA2006 (Pet\<r\'i\<cek <i>et. al.</i>, 2006)
;
_computing_structure_solution
;
Superflip (Palatinus & Chapuis, 2007)
;
_diffrn_ambient_temperature      301.5
_diffrn_detector_area_resol_mean 10.3784
_diffrn_measured_fraction_theta_full 0.98
_diffrn_measured_fraction_theta_max 0.97
_diffrn_measurement_device       'four-cycle diffractometer'
_diffrn_measurement_device_type  'Xcalibur, Gemini ultra'
_diffrn_measurement_method       \w-scans
_diffrn_radiation_monochromator  graphite
_diffrn_radiation_source         'Enhance (Mo) X-ray Source'
_diffrn_radiation_type           'Mo K\a'
_diffrn_radiation_wavelength     0.7107
_diffrn_reflns_av_R_equivalents  0.0587
_diffrn_reflns_av_sigmaI/netI    0.0179
_diffrn_reflns_limit_h_max       5
_diffrn_reflns_limit_h_min       -5
_diffrn_reflns_limit_k_max       5
_diffrn_reflns_limit_k_min       -5
_diffrn_reflns_limit_l_max       30
_diffrn_reflns_limit_l_min       -30
_diffrn_reflns_number            1568
_diffrn_reflns_theta_full        29.05
_diffrn_reflns_theta_max         29.06
_diffrn_reflns_theta_min         5.36
_diffrn_standards_number         0
_exptl_absorpt_coefficient_mu    25.480
_exptl_absorpt_correction_T_max  0.512
_exptl_absorpt_correction_T_min  0.018
_exptl_absorpt_correction_type   analytical
_exptl_absorpt_process_details
;
<i>CrysAlis PRO</i>, Agilent Technologies (2012),
Analytical numeric absorption correction using a multifaceted crystal
model based on expressions derived by R.C. Clark & J.S. Reid (1995).
;
_exptl_crystal_colour            colourless
_exptl_crystal_density_diffrn    3.6730
_exptl_crystal_description       plate
_exptl_crystal_F_000             324
_exptl_crystal_size_max          0.4463
_exptl_crystal_size_mid          0.3087
_exptl_crystal_size_min          0.0380
_refine_diff_density_max         1.64
_refine_diff_density_min         -2.42
_refine_ls_extinction_method     none
_refine_ls_goodness_of_fit_ref   2.98
_refine_ls_number_constraints    0
_refine_ls_number_parameters     8
_refine_ls_number_reflns         140
_refine_ls_number_restraints     0
_refine_ls_R_factor_all          0.0386
_refine_ls_R_factor_gt           0.0346
_refine_ls_shift/su_max          0.0040
_refine_ls_shift/su_mean         0.0021
_refine_ls_structure_factor_coef Fsqd
_refine_ls_weighting_details     w=1/(\s^2^(I)+0.0004I^2^)
_refine_ls_weighting_scheme      sigma
_refine_ls_wR_factor_gt          0.0860
_refine_ls_wR_factor_ref         0.0977
_reflns_number_gt                131
_reflns_number_total             140
_reflns_threshold_expression     I>3\s(I)
_iucr_refine_instructions_details
;
    3    0    0    1
 1.350383 0.000000 0.000000 0.000000 0.000000 0.000000      100000
 0.000000                                                   0
 0.000000 0.000000 0.000000 0.000000 0.000000 0.000000      000000
 0.000000 0.000000 0.000000 0.000000 0.000000 0.000000      000000
Y1        3  2     0.083333 0.333333 0.666667 0.166667
 0.004292 0.004292 0.005472 0.002146 0.000000 0.000000      0000101000
Rb1       1  2     0.083333 0.000000 0.000000 0.000000
 0.016742 0.016742 0.013317 0.008371 0.000000 0.000000      0000101000
S1        2  2     0.166667 0.000000 1.000000 0.230902
 0.013720 0.013720 0.013105 0.006860 0.000000 0.000000      0001101000
----------------------------   s.u. block   ----------------------------
 0.011927 0.000000 0.000000 0.000000 0.000000 0.000000
 0.000000
 0.000000 0.000000 0.000000 0.000000 0.000000 0.000000
 0.006044 0.000000 0.000000 0.000000 0.000000 0.000000
Y1                 0.000000 0.000000 0.000000 0.000000
 0.000578 0.000578 0.000818 0.000289 0.000000 0.000000
Rb1                0.000000 0.000000 0.000000 0.000000
 0.000680 0.000680 0.000942 0.000340 0.000000 0.000000
S1                 0.000000 0.000000 0.000000 0.000148
 0.000938 0.000938 0.001476 0.000469 0.000000 0.000000
--------------------------   Saved points   ----------------------------
    0
--------------------------   Fourier maxima   --------------------------
    1    1    1
max1      1  1     1.000000 0.074921 0.148956 0.662131      000  0  0  0
     0.66     0.43
max2      1  1     1.000000 0.182550 0.332959 0.333025      000  0  0  0
     0.61     0.43
max3      1  1     1.000000 0.000120 0.421406 0.000000      000  0  0  0
     0.62     0.42
max4      1  1     1.000000 0.000000 0.000000 0.175071      000  0  0  0
     0.89     0.33
max5      1  1     1.000000 0.000000 0.000000 0.076108      000  0  0  0
     1.28     0.32
max6      1  1     1.000000 0.000000 0.500000 0.500000      000  0  0  0
     0.77     0.32
max7      1  1     1.000000 0.074966 0.154062 0.315590      000  0  0  0
     0.53     0.27
max8      1  1     1.000000 0.000000 0.000000 0.000000      000  0  0  0
     1.64     0.26
max9      1  1     1.000000 0.087387 0.166006 0.411223      000  0  0  0
     0.72     0.24
max10     1  1     1.000000 0.000890 0.500000 0.333124      000  0  0  0
     0.42     0.23
--------------------------   Fourier minima   --------------------------
    1    1    1
min1      1  1     1.000000 0.000000 0.000000 0.295748      000  0  0  0
     1.15     0.64
min2      1  1     1.000000 0.000000 0.000000 0.200380      000  0  0  0
     1.17     0.56
min3      1  1     1.000000 0.075028 0.142390 0.243024      000  0  0  0
     0.91     0.52
min4      1  1     1.000000 0.000000 0.000000 0.459459      000  0  0  0
     2.43     0.51
min5      1  1     1.000000 0.076201 0.149744 0.746169      000  0  0  0
     0.80     0.42
min6      1  1     1.000000 0.074935 0.144009 0.040119      000  0  0  0
     0.63     0.35
min7      1  1     1.000000 0.079265 0.893140 0.984961      000  0  0  0
     0.71     0.31
min8      1  1     1.000000 0.000000 0.000000 0.394726      000  0  0  0
     0.66     0.17
min9      1  1     1.000000 0.092892 0.547595 0.152095      000  0  0  0
     0.48     0.16
min10     1  1     1.000000 0.000000 0.000000 0.358860      000  0  0  0
     0.82     0.16
------------------------------------------------------------------------
Version Jana2006
title
cell 4.0444 4.0444 22.8267 90 90 120
esdcell 0.0003 0.0003 0.0016 0 0 0
spgroup R-3m 166 5
lattice R
symmetry x y z
symmetry -y x-y z
symmetry -x+y -x z
symmetry y x -z
symmetry x-y -y -z
symmetry -x -x+y -z
symmetry -x -y -z
symmetry y -x+y -z
symmetry x-y x -z
symmetry -y -x z
symmetry -x+y y z
symmetry x x-y z
unitsnumb 3
chemform Rb S2 Y
formtab -62
atom Rb atradius 2.5 color 255000153
atom S atradius 1.82 color 102152142
f' 0.1246 f" 3.5667
atom Y atradius 1.04 color 255250000
f' -2.7962 f" 0.1234
roundmethod 1
end
*******************************************************************************
contour
end contour
dist
  angles 1 lsttype 1 dmax 4
  bondval Rb S 2.7 0.37
  bondval Y S 2.48 0.37
end dist
fourier
  maptype 6
end fourier
refine
  fsquare 1
end refine
;
_cod_data_source_file            bp5060sup1.cif
_cod_data_source_block           VII
_cod_original_sg_symbol_H-M      'R -3 m'
_cod_original_formula_sum        'Rb1 Y1 S2'
_cod_database_code               2105804
_cod_database_fobs_code          2105804
loop_
_symmetry_equiv_pos_site_id
_symmetry_equiv_pos_as_xyz
1 x,y,z
2 -y,x-y,z
3 -x+y,-x,z
4 y,x,-z
5 x-y,-y,-z
6 -x,-x+y,-z
7 -x,-y,-z
8 y,-x+y,-z
9 x-y,x,-z
10 -y,-x,z
11 -x+y,y,z
12 x,x-y,z
13 x+2/3,y+1/3,z+1/3
14 -y+2/3,x-y+1/3,z+1/3
15 -x+y+2/3,-x+1/3,z+1/3
16 y+2/3,x+1/3,-z+1/3
17 x-y+2/3,-y+1/3,-z+1/3
18 -x+2/3,-x+y+1/3,-z+1/3
19 -x+2/3,-y+1/3,-z+1/3
20 y+2/3,-x+y+1/3,-z+1/3
21 x-y+2/3,x+1/3,-z+1/3
22 -y+2/3,-x+1/3,z+1/3
23 -x+y+2/3,y+1/3,z+1/3
24 x+2/3,x-y+1/3,z+1/3
25 x+1/3,y+2/3,z+2/3
26 -y+1/3,x-y+2/3,z+2/3
27 -x+y+1/3,-x+2/3,z+2/3
28 y+1/3,x+2/3,-z+2/3
29 x-y+1/3,-y+2/3,-z+2/3
30 -x+1/3,-x+y+2/3,-z+2/3
31 -x+1/3,-y+2/3,-z+2/3
32 y+1/3,-x+y+2/3,-z+2/3
33 x-y+1/3,x+2/3,-z+2/3
34 -y+1/3,-x+2/3,z+2/3
35 -x+y+1/3,y+2/3,z+2/3
36 x+1/3,x-y+2/3,z+2/3
loop_
_atom_site_type_symbol
_atom_site_label
_atom_site_fract_x
_atom_site_fract_y
_atom_site_fract_z
_atom_site_U_iso_or_equiv
_atom_site_adp_type
_atom_site_calc_flag
_atom_site_occupancy
_atom_site_symmetry_multiplicity
Y Y1 0.333333 0.666667 0.166667 0.0047(5) Uani d 1 3
Rb Rb1 0 0 0 0.0156(6) Uani d 1 3
S S1 0 1 0.23090(15) 0.0135(8) Uani d 1 6
loop_
_atom_site_aniso_label
_atom_site_aniso_U_11
_atom_site_aniso_U_22
_atom_site_aniso_U_33
_atom_site_aniso_U_12
_atom_site_aniso_U_13
_atom_site_aniso_U_23
_atom_site_aniso_type_symbol
Y1 0.0043(6) 0.0043(6) 0.0055(8) 0.0021(3) 0 0 Y
Rb1 0.0167(7) 0.0167(7) 0.0133(9) 0.0084(3) 0 0 Rb
S1 0.0137(9) 0.0137(9) 0.0131(15) 0.0069(5) 0 0 S
loop_
_atom_type_symbol
_atom_type_scat_dispersion_real
_atom_type_scat_dispersion_imag
_atom_type_scat_source
Rb -0.9393 2.9676 'International Tables Vol C tables 4.2.6.8 and 6.1.1.1'
S 0.1246 3.5667 'International Tables Vol C tables 4.2.6.8 and 6.1.1.1'
Y -2.7962 0.1234 'International Tables Vol C tables 4.2.6.8 and 6.1.1.1'
loop_
_exptl_crystal_face_index_h
_exptl_crystal_face_index_k
_exptl_crystal_face_index_l
_exptl_crystal_face_perp_dist
0 0 -32 0.0199
0 0 32 0.0181
0 -5 -4 0.1602
5 -5 -2 0.1896
5 0 2 0.1617
0 5 4 0.1416
-5 5 2 0.2096
-5 0 -2 0.2107
