data_1523050_molecule_0
loop_
_publ_author_name
'Voroshilov, Yu.V.'
'Gurzan, M.I.'
'Kish, Z.Z.'
'Lada, L.V.'
_publ_section_title
;
 Phase equilibria in the Tl-Pb-Te system and crystal structures of Tl4
 B(IV) X3 and Tl9 B(V) X5 compounds
;
_journal_name_full
'Izvestiya Akademii Nauk SSSR, Neorganicheskie Materialy'
_journal_page_first              1479
_journal_page_last               1484
_journal_volume                  24
_journal_year                    1988
_cod_src_chemical_formula_sum    'Sn Te3 Tl4'
_cell_angle_alpha                90
_cell_angle_beta                 90
_cell_angle_gamma                90
_cell_length_a                   8.836
_cell_length_b                   8.836
_cell_length_c                   13.052
_audit_creation_method
'Id: cif_molecule 6390 2018-08-19 02:38:17Z Alina_Belova'
_chemical_formula_sum            'Te4 Tl8'
_cod_data_source_file            1523050.cif
_cod_data_source_block           1523050
_cell_formula_units_Z            1
_symmetry_space_group_name_H-M   'P 1'
_cod_molecule_is_polymer         yes
_cod_molecule_polymer_dimension  2
_cod_molecule_polymer_basis      '1;0;0 0;1;0'
loop_
_symmetry_equiv_pos_as_xyz
'x, y, z'
loop_
_atom_site_label
_atom_site_type_symbol
_atom_site_fract_x
_atom_site_fract_y
_atom_site_fract_z
_atom_site_U_iso_or_equiv
_atom_site_occupancy
Te2 Te-2 0.334000 0.834000 0.000000 0.0 1
Tl1 Tl+1 0.145800 0.645800 0.136000 0.0 1
Te2_1_445 Te-2 -0.666000 -0.166000 0.000000 0.0 1
Te2_1_455 Te-2 -0.666000 0.834000 0.000000 0.0 1
Te2_1_465 Te-2 -0.666000 1.834000 0.000000 0.0 1
Te2_1_545 Te-2 0.334000 -0.166000 0.000000 0.0 1
Te2_1_565 Te-2 0.334000 1.834000 0.000000 0.0 1
Te2_1_645 Te-2 1.334000 -0.166000 0.000000 0.0 1
Te2_1_655 Te-2 1.334000 0.834000 0.000000 0.0 1
Te2_1_665 Te-2 1.334000 1.834000 0.000000 0.0 1
Te2_2_445 Te-2 -0.834000 -0.666000 0.000000 0.0 1
Te2_2_455 Te-2 -0.834000 0.334000 0.000000 0.0 1
Te2_2_465 Te-2 -0.834000 1.334000 0.000000 0.0 1
Te2_2_545 Te-2 0.166000 -0.666000 0.000000 0.0 1
Te2_2_555 Te-2 0.166000 0.334000 0.000000 0.0 1
Te2_2_565 Te-2 0.166000 1.334000 0.000000 0.0 1
Te2_2_645 Te-2 1.166000 -0.666000 0.000000 0.0 1
Te2_2_655 Te-2 1.166000 0.334000 0.000000 0.0 1
Te2_2_665 Te-2 1.166000 1.334000 0.000000 0.0 1
Te2_3_445 Te-2 -0.334000 -0.834000 0.000000 0.0 1
Te2_3_455 Te-2 -0.334000 0.166000 0.000000 0.0 1
Te2_3_465 Te-2 -0.334000 1.166000 0.000000 0.0 1
Te2_3_545 Te-2 0.666000 -0.834000 0.000000 0.0 1
Te2_3_555 Te-2 0.666000 0.166000 0.000000 0.0 1
Te2_3_565 Te-2 0.666000 1.166000 0.000000 0.0 1
Te2_3_645 Te-2 1.666000 -0.834000 0.000000 0.0 1
Te2_3_655 Te-2 1.666000 0.166000 0.000000 0.0 1
Te2_3_665 Te-2 1.666000 1.166000 0.000000 0.0 1
Te2_4_445 Te-2 -0.166000 -0.334000 0.000000 0.0 1
Te2_4_455 Te-2 -0.166000 0.666000 0.000000 0.0 1
Te2_4_465 Te-2 -0.166000 1.666000 0.000000 0.0 1
Te2_4_545 Te-2 0.834000 -0.334000 0.000000 0.0 1
Te2_4_555 Te-2 0.834000 0.666000 0.000000 0.0 1
Te2_4_565 Te-2 0.834000 1.666000 0.000000 0.0 1
Te2_4_645 Te-2 1.834000 -0.334000 0.000000 0.0 1
Te2_4_655 Te-2 1.834000 0.666000 0.000000 0.0 1
Te2_4_665 Te-2 1.834000 1.666000 0.000000 0.0 1
Tl1_1_445 Tl+1 -0.854200 -0.354200 0.136000 0.0 1
Tl1_1_455 Tl+1 -0.854200 0.645800 0.136000 0.0 1
Tl1_1_465 Tl+1 -0.854200 1.645800 0.136000 0.0 1
Tl1_1_545 Tl+1 0.145800 -0.354200 0.136000 0.0 1
Tl1_1_565 Tl+1 0.145800 1.645800 0.136000 0.0 1
Tl1_1_645 Tl+1 1.145800 -0.354200 0.136000 0.0 1
Tl1_1_655 Tl+1 1.145800 0.645800 0.136000 0.0 1
Tl1_1_665 Tl+1 1.145800 1.645800 0.136000 0.0 1
Tl1_2_445 Tl+1 -0.645800 -0.854200 0.136000 0.0 1
Tl1_2_455 Tl+1 -0.645800 0.145800 0.136000 0.0 1
Tl1_2_465 Tl+1 -0.645800 1.145800 0.136000 0.0 1
Tl1_2_545 Tl+1 0.354200 -0.854200 0.136000 0.0 1
Tl1_2_555 Tl+1 0.354200 0.145800 0.136000 0.0 1
Tl1_2_565 Tl+1 0.354200 1.145800 0.136000 0.0 1
Tl1_2_645 Tl+1 1.354200 -0.854200 0.136000 0.0 1
Tl1_2_655 Tl+1 1.354200 0.145800 0.136000 0.0 1
Tl1_2_665 Tl+1 1.354200 1.145800 0.136000 0.0 1
Tl1_3_445 Tl+1 -0.145800 -0.645800 0.136000 0.0 1
Tl1_3_455 Tl+1 -0.145800 0.354200 0.136000 0.0 1
Tl1_3_465 Tl+1 -0.145800 1.354200 0.136000 0.0 1
Tl1_3_545 Tl+1 0.854200 -0.645800 0.136000 0.0 1
Tl1_3_555 Tl+1 0.854200 0.354200 0.136000 0.0 1
Tl1_3_565 Tl+1 0.854200 1.354200 0.136000 0.0 1
Tl1_3_645 Tl+1 1.854200 -0.645800 0.136000 0.0 1
Tl1_3_655 Tl+1 1.854200 0.354200 0.136000 0.0 1
Tl1_3_665 Tl+1 1.854200 1.354200 0.136000 0.0 1
Tl1_4_445 Tl+1 -0.354200 -0.145800 0.136000 0.0 1
Tl1_4_455 Tl+1 -0.354200 0.854200 0.136000 0.0 1
Tl1_4_465 Tl+1 -0.354200 1.854200 0.136000 0.0 1
Tl1_4_545 Tl+1 0.645800 -0.145800 0.136000 0.0 1
Tl1_4_555 Tl+1 0.645800 0.854200 0.136000 0.0 1
Tl1_4_565 Tl+1 0.645800 1.854200 0.136000 0.0 1
Tl1_4_645 Tl+1 1.645800 -0.145800 0.136000 0.0 1
Tl1_4_655 Tl+1 1.645800 0.854200 0.136000 0.0 1
Tl1_4_665 Tl+1 1.645800 1.854200 0.136000 0.0 1
Tl1_9_444 Tl+1 -0.145800 -0.645800 -0.136000 0.0 1
Tl1_9_454 Tl+1 -0.145800 0.354200 -0.136000 0.0 1
Tl1_9_464 Tl+1 -0.145800 1.354200 -0.136000 0.0 1
Tl1_9_544 Tl+1 0.854200 -0.645800 -0.136000 0.0 1
Tl1_9_554 Tl+1 0.854200 0.354200 -0.136000 0.0 1
Tl1_9_564 Tl+1 0.854200 1.354200 -0.136000 0.0 1
Tl1_9_644 Tl+1 1.854200 -0.645800 -0.136000 0.0 1
Tl1_9_654 Tl+1 1.854200 0.354200 -0.136000 0.0 1
Tl1_9_664 Tl+1 1.854200 1.354200 -0.136000 0.0 1
Tl1_10_444 Tl+1 -0.354200 -0.145800 -0.136000 0.0 1
Tl1_10_454 Tl+1 -0.354200 0.854200 -0.136000 0.0 1
Tl1_10_464 Tl+1 -0.354200 1.854200 -0.136000 0.0 1
Tl1_10_544 Tl+1 0.645800 -0.145800 -0.136000 0.0 1
Tl1_10_554 Tl+1 0.645800 0.854200 -0.136000 0.0 1
Tl1_10_564 Tl+1 0.645800 1.854200 -0.136000 0.0 1
Tl1_10_644 Tl+1 1.645800 -0.145800 -0.136000 0.0 1
Tl1_10_654 Tl+1 1.645800 0.854200 -0.136000 0.0 1
Tl1_10_664 Tl+1 1.645800 1.854200 -0.136000 0.0 1
Tl1_11_444 Tl+1 -0.854200 -0.354200 -0.136000 0.0 1
Tl1_11_454 Tl+1 -0.854200 0.645800 -0.136000 0.0 1
Tl1_11_464 Tl+1 -0.854200 1.645800 -0.136000 0.0 1
Tl1_11_544 Tl+1 0.145800 -0.354200 -0.136000 0.0 1
Tl1_11_554 Tl+1 0.145800 0.645800 -0.136000 0.0 1
Tl1_11_564 Tl+1 0.145800 1.645800 -0.136000 0.0 1
Tl1_11_644 Tl+1 1.145800 -0.354200 -0.136000 0.0 1
Tl1_11_654 Tl+1 1.145800 0.645800 -0.136000 0.0 1
Tl1_11_664 Tl+1 1.145800 1.645800 -0.136000 0.0 1
Tl1_12_444 Tl+1 -0.645800 -0.854200 -0.136000 0.0 1
Tl1_12_454 Tl+1 -0.645800 0.145800 -0.136000 0.0 1
Tl1_12_464 Tl+1 -0.645800 1.145800 -0.136000 0.0 1
Tl1_12_544 Tl+1 0.354200 -0.854200 -0.136000 0.0 1
Tl1_12_554 Tl+1 0.354200 0.145800 -0.136000 0.0 1
Tl1_12_564 Tl+1 0.354200 1.145800 -0.136000 0.0 1
Tl1_12_644 Tl+1 1.354200 -0.854200 -0.136000 0.0 1
Tl1_12_654 Tl+1 1.354200 0.145800 -0.136000 0.0 1
Tl1_12_664 Tl+1 1.354200 1.145800 -0.136000 0.0 1
loop_
_cod_molecule_atom_label
_cod_molecule_atom_orig_label
_cod_molecule_atom_symmetry
_cod_molecule_atom_symop_id
_cod_molecule_atom_symop_xyz
_cod_molecule_atom_transl_id
_cod_molecule_atom_transl_x
_cod_molecule_atom_transl_y
_cod_molecule_atom_transl_z
_cod_molecule_atom_mult
_cod_molecule_atom_mult_ratio
Te2 Te2 1_555 1 x,y,z 555 0 0 0 8 4
Tl1 Tl1 1_555 1 x,y,z 555 0 0 0 16 2
Te2_1_445 Te2 1_445 1 x,y,z 445 -1 -1 0 8 4
Te2_1_455 Te2 1_455 1 x,y,z 455 -1 0 0 8 4
Te2_1_465 Te2 1_465 1 x,y,z 465 -1 1 0 8 4
Te2_1_545 Te2 1_545 1 x,y,z 545 0 -1 0 8 4
Te2_1_565 Te2 1_565 1 x,y,z 565 0 1 0 8 4
Te2_1_645 Te2 1_645 1 x,y,z 645 1 -1 0 8 4
Te2_1_655 Te2 1_655 1 x,y,z 655 1 0 0 8 4
Te2_1_665 Te2 1_665 1 x,y,z 665 1 1 0 8 4
Te2_2_445 Te2 2_445 2 -y,x,z 445 -1 -1 0 8 4
Te2_2_455 Te2 2_455 2 -y,x,z 455 -1 0 0 8 4
Te2_2_465 Te2 2_465 2 -y,x,z 465 -1 1 0 8 4
Te2_2_545 Te2 2_545 2 -y,x,z 545 0 -1 0 8 4
Te2_2_555 Te2 2_555 2 -y,x,z 555 0 0 0 8 4
Te2_2_565 Te2 2_565 2 -y,x,z 565 0 1 0 8 4
Te2_2_645 Te2 2_645 2 -y,x,z 645 1 -1 0 8 4
Te2_2_655 Te2 2_655 2 -y,x,z 655 1 0 0 8 4
Te2_2_665 Te2 2_665 2 -y,x,z 665 1 1 0 8 4
Te2_3_445 Te2 3_445 3 -x,-y,z 445 -1 -1 0 8 4
Te2_3_455 Te2 3_455 3 -x,-y,z 455 -1 0 0 8 4
Te2_3_465 Te2 3_465 3 -x,-y,z 465 -1 1 0 8 4
Te2_3_545 Te2 3_545 3 -x,-y,z 545 0 -1 0 8 4
Te2_3_555 Te2 3_555 3 -x,-y,z 555 0 0 0 8 4
Te2_3_565 Te2 3_565 3 -x,-y,z 565 0 1 0 8 4
Te2_3_645 Te2 3_645 3 -x,-y,z 645 1 -1 0 8 4
Te2_3_655 Te2 3_655 3 -x,-y,z 655 1 0 0 8 4
Te2_3_665 Te2 3_665 3 -x,-y,z 665 1 1 0 8 4
Te2_4_445 Te2 4_445 4 y,-x,z 445 -1 -1 0 8 4
Te2_4_455 Te2 4_455 4 y,-x,z 455 -1 0 0 8 4
Te2_4_465 Te2 4_465 4 y,-x,z 465 -1 1 0 8 4
Te2_4_545 Te2 4_545 4 y,-x,z 545 0 -1 0 8 4
Te2_4_555 Te2 4_555 4 y,-x,z 555 0 0 0 8 4
Te2_4_565 Te2 4_565 4 y,-x,z 565 0 1 0 8 4
Te2_4_645 Te2 4_645 4 y,-x,z 645 1 -1 0 8 4
Te2_4_655 Te2 4_655 4 y,-x,z 655 1 0 0 8 4
Te2_4_665 Te2 4_665 4 y,-x,z 665 1 1 0 8 4
Tl1_1_445 Tl1 1_445 1 x,y,z 445 -1 -1 0 16 2
Tl1_1_455 Tl1 1_455 1 x,y,z 455 -1 0 0 16 2
Tl1_1_465 Tl1 1_465 1 x,y,z 465 -1 1 0 16 2
Tl1_1_545 Tl1 1_545 1 x,y,z 545 0 -1 0 16 2
Tl1_1_565 Tl1 1_565 1 x,y,z 565 0 1 0 16 2
Tl1_1_645 Tl1 1_645 1 x,y,z 645 1 -1 0 16 2
Tl1_1_655 Tl1 1_655 1 x,y,z 655 1 0 0 16 2
Tl1_1_665 Tl1 1_665 1 x,y,z 665 1 1 0 16 2
Tl1_2_445 Tl1 2_445 2 -y,x,z 445 -1 -1 0 16 2
Tl1_2_455 Tl1 2_455 2 -y,x,z 455 -1 0 0 16 2
Tl1_2_465 Tl1 2_465 2 -y,x,z 465 -1 1 0 16 2
Tl1_2_545 Tl1 2_545 2 -y,x,z 545 0 -1 0 16 2
Tl1_2_555 Tl1 2_555 2 -y,x,z 555 0 0 0 16 2
Tl1_2_565 Tl1 2_565 2 -y,x,z 565 0 1 0 16 2
Tl1_2_645 Tl1 2_645 2 -y,x,z 645 1 -1 0 16 2
Tl1_2_655 Tl1 2_655 2 -y,x,z 655 1 0 0 16 2
Tl1_2_665 Tl1 2_665 2 -y,x,z 665 1 1 0 16 2
Tl1_3_445 Tl1 3_445 3 -x,-y,z 445 -1 -1 0 16 2
Tl1_3_455 Tl1 3_455 3 -x,-y,z 455 -1 0 0 16 2
Tl1_3_465 Tl1 3_465 3 -x,-y,z 465 -1 1 0 16 2
Tl1_3_545 Tl1 3_545 3 -x,-y,z 545 0 -1 0 16 2
Tl1_3_555 Tl1 3_555 3 -x,-y,z 555 0 0 0 16 2
Tl1_3_565 Tl1 3_565 3 -x,-y,z 565 0 1 0 16 2
Tl1_3_645 Tl1 3_645 3 -x,-y,z 645 1 -1 0 16 2
Tl1_3_655 Tl1 3_655 3 -x,-y,z 655 1 0 0 16 2
Tl1_3_665 Tl1 3_665 3 -x,-y,z 665 1 1 0 16 2
Tl1_4_445 Tl1 4_445 4 y,-x,z 445 -1 -1 0 16 2
Tl1_4_455 Tl1 4_455 4 y,-x,z 455 -1 0 0 16 2
Tl1_4_465 Tl1 4_465 4 y,-x,z 465 -1 1 0 16 2
Tl1_4_545 Tl1 4_545 4 y,-x,z 545 0 -1 0 16 2
Tl1_4_555 Tl1 4_555 4 y,-x,z 555 0 0 0 16 2
Tl1_4_565 Tl1 4_565 4 y,-x,z 565 0 1 0 16 2
Tl1_4_645 Tl1 4_645 4 y,-x,z 645 1 -1 0 16 2
Tl1_4_655 Tl1 4_655 4 y,-x,z 655 1 0 0 16 2
Tl1_4_665 Tl1 4_665 4 y,-x,z 665 1 1 0 16 2
Tl1_9_444 Tl1 9_444 9 -x,-y,-z 444 -1 -1 -1 16 2
Tl1_9_454 Tl1 9_454 9 -x,-y,-z 454 -1 0 -1 16 2
Tl1_9_464 Tl1 9_464 9 -x,-y,-z 464 -1 1 -1 16 2
Tl1_9_544 Tl1 9_544 9 -x,-y,-z 544 0 -1 -1 16 2
Tl1_9_554 Tl1 9_554 9 -x,-y,-z 554 0 0 -1 16 2
Tl1_9_564 Tl1 9_564 9 -x,-y,-z 564 0 1 -1 16 2
Tl1_9_644 Tl1 9_644 9 -x,-y,-z 644 1 -1 -1 16 2
Tl1_9_654 Tl1 9_654 9 -x,-y,-z 654 1 0 -1 16 2
Tl1_9_664 Tl1 9_664 9 -x,-y,-z 664 1 1 -1 16 2
Tl1_10_444 Tl1 10_444 10 y,-x,-z 444 -1 -1 -1 16 2
Tl1_10_454 Tl1 10_454 10 y,-x,-z 454 -1 0 -1 16 2
Tl1_10_464 Tl1 10_464 10 y,-x,-z 464 -1 1 -1 16 2
Tl1_10_544 Tl1 10_544 10 y,-x,-z 544 0 -1 -1 16 2
Tl1_10_554 Tl1 10_554 10 y,-x,-z 554 0 0 -1 16 2
Tl1_10_564 Tl1 10_564 10 y,-x,-z 564 0 1 -1 16 2
Tl1_10_644 Tl1 10_644 10 y,-x,-z 644 1 -1 -1 16 2
Tl1_10_654 Tl1 10_654 10 y,-x,-z 654 1 0 -1 16 2
Tl1_10_664 Tl1 10_664 10 y,-x,-z 664 1 1 -1 16 2
Tl1_11_444 Tl1 11_444 11 x,y,-z 444 -1 -1 -1 16 2
Tl1_11_454 Tl1 11_454 11 x,y,-z 454 -1 0 -1 16 2
Tl1_11_464 Tl1 11_464 11 x,y,-z 464 -1 1 -1 16 2
Tl1_11_544 Tl1 11_544 11 x,y,-z 544 0 -1 -1 16 2
Tl1_11_554 Tl1 11_554 11 x,y,-z 554 0 0 -1 16 2
Tl1_11_564 Tl1 11_564 11 x,y,-z 564 0 1 -1 16 2
Tl1_11_644 Tl1 11_644 11 x,y,-z 644 1 -1 -1 16 2
Tl1_11_654 Tl1 11_654 11 x,y,-z 654 1 0 -1 16 2
Tl1_11_664 Tl1 11_664 11 x,y,-z 664 1 1 -1 16 2
Tl1_12_444 Tl1 12_444 12 -y,x,-z 444 -1 -1 -1 16 2
Tl1_12_454 Tl1 12_454 12 -y,x,-z 454 -1 0 -1 16 2
Tl1_12_464 Tl1 12_464 12 -y,x,-z 464 -1 1 -1 16 2
Tl1_12_544 Tl1 12_544 12 -y,x,-z 544 0 -1 -1 16 2
Tl1_12_554 Tl1 12_554 12 -y,x,-z 554 0 0 -1 16 2
Tl1_12_564 Tl1 12_564 12 -y,x,-z 564 0 1 -1 16 2
Tl1_12_644 Tl1 12_644 12 -y,x,-z 644 1 -1 -1 16 2
Tl1_12_654 Tl1 12_654 12 -y,x,-z 654 1 0 -1 16 2
Tl1_12_664 Tl1 12_664 12 -y,x,-z 664 1 1 -1 16 2
loop_
_cod_molecule_transform_label
_cod_molecule_transform_symop
Te2 x,y,-z
Te2 y+1/2,x+1/2,-z
Te2 y+1/2,x+1/2,z
Tl1 y+1/2,x+1/2,z
Te2_1_445 x,y,-z
Te2_1_445 y+1/2,x+1/2,-z
Te2_1_445 y+1/2,x+1/2,z
Te2_1_455 x,y,-z
Te2_1_455 y+1/2,x+1/2,-z
Te2_1_455 y+1/2,x+1/2,z
Te2_1_465 x,y,-z
Te2_1_465 y+1/2,x+1/2,-z
Te2_1_465 y+1/2,x+1/2,z
Te2_1_545 x,y,-z
Te2_1_545 y+1/2,x+1/2,-z
Te2_1_545 y+1/2,x+1/2,z
Te2_1_565 x,y,-z
Te2_1_565 y+1/2,x+1/2,-z
Te2_1_565 y+1/2,x+1/2,z
Te2_1_645 x,y,-z
Te2_1_645 y+1/2,x+1/2,-z
Te2_1_645 y+1/2,x+1/2,z
Te2_1_655 x,y,-z
Te2_1_655 y+1/2,x+1/2,-z
Te2_1_655 y+1/2,x+1/2,z
Te2_1_665 x,y,-z
Te2_1_665 y+1/2,x+1/2,-z
Te2_1_665 y+1/2,x+1/2,z
Te2_2_445 x,y,-z
Te2_2_445 -y+1/2,-x+1/2,-z
Te2_2_445 -y+1/2,-x+1/2,z
Te2_2_455 x,y,-z
Te2_2_455 -y+1/2,-x+1/2,-z
Te2_2_455 -y+1/2,-x+1/2,z
Te2_2_465 x,y,-z
Te2_2_465 -y+1/2,-x+1/2,-z
Te2_2_465 -y+1/2,-x+1/2,z
Te2_2_545 x,y,-z
Te2_2_545 -y+1/2,-x+1/2,-z
Te2_2_545 -y+1/2,-x+1/2,z
Te2_2_555 x,y,-z
Te2_2_555 -y+1/2,-x+1/2,-z
Te2_2_555 -y+1/2,-x+1/2,z
Te2_2_565 x,y,-z
Te2_2_565 -y+1/2,-x+1/2,-z
Te2_2_565 -y+1/2,-x+1/2,z
Te2_2_645 x,y,-z
Te2_2_645 -y+1/2,-x+1/2,-z
Te2_2_645 -y+1/2,-x+1/2,z
Te2_2_655 x,y,-z
Te2_2_655 -y+1/2,-x+1/2,-z
Te2_2_655 -y+1/2,-x+1/2,z
Te2_2_665 x,y,-z
Te2_2_665 -y+1/2,-x+1/2,-z
Te2_2_665 -y+1/2,-x+1/2,z
Te2_3_445 x,y,-z
Te2_3_445 y+1/2,x+1/2,-z
Te2_3_445 y+1/2,x+1/2,z
Te2_3_455 x,y,-z
Te2_3_455 y+1/2,x+1/2,-z
Te2_3_455 y+1/2,x+1/2,z
Te2_3_465 x,y,-z
Te2_3_465 y+1/2,x+1/2,-z
Te2_3_465 y+1/2,x+1/2,z
Te2_3_545 x,y,-z
Te2_3_545 y+1/2,x+1/2,-z
Te2_3_545 y+1/2,x+1/2,z
Te2_3_555 x,y,-z
Te2_3_555 y+1/2,x+1/2,-z
Te2_3_555 y+1/2,x+1/2,z
Te2_3_565 x,y,-z
Te2_3_565 y+1/2,x+1/2,-z
Te2_3_565 y+1/2,x+1/2,z
Te2_3_645 x,y,-z
Te2_3_645 y+1/2,x+1/2,-z
Te2_3_645 y+1/2,x+1/2,z
Te2_3_655 x,y,-z
Te2_3_655 y+1/2,x+1/2,-z
Te2_3_655 y+1/2,x+1/2,z
Te2_3_665 x,y,-z
Te2_3_665 y+1/2,x+1/2,-z
Te2_3_665 y+1/2,x+1/2,z
Te2_4_445 x,y,-z
Te2_4_445 -y+1/2,-x+1/2,-z
Te2_4_445 -y+1/2,-x+1/2,z
Te2_4_455 x,y,-z
Te2_4_455 -y+1/2,-x+1/2,-z
Te2_4_455 -y+1/2,-x+1/2,z
Te2_4_465 x,y,-z
Te2_4_465 -y+1/2,-x+1/2,-z
Te2_4_465 -y+1/2,-x+1/2,z
Te2_4_545 x,y,-z
Te2_4_545 -y+1/2,-x+1/2,-z
Te2_4_545 -y+1/2,-x+1/2,z
Te2_4_555 x,y,-z
Te2_4_555 -y+1/2,-x+1/2,-z
Te2_4_555 -y+1/2,-x+1/2,z
Te2_4_565 x,y,-z
Te2_4_565 -y+1/2,-x+1/2,-z
Te2_4_565 -y+1/2,-x+1/2,z
Te2_4_645 x,y,-z
Te2_4_645 -y+1/2,-x+1/2,-z
Te2_4_645 -y+1/2,-x+1/2,z
Te2_4_655 x,y,-z
Te2_4_655 -y+1/2,-x+1/2,-z
Te2_4_655 -y+1/2,-x+1/2,z
Te2_4_665 x,y,-z
Te2_4_665 -y+1/2,-x+1/2,-z
Te2_4_665 -y+1/2,-x+1/2,z
Tl1_1_445 y+1/2,x+1/2,z
Tl1_1_455 y+1/2,x+1/2,z
Tl1_1_465 y+1/2,x+1/2,z
Tl1_1_545 y+1/2,x+1/2,z
Tl1_1_565 y+1/2,x+1/2,z
Tl1_1_645 y+1/2,x+1/2,z
Tl1_1_655 y+1/2,x+1/2,z
Tl1_1_665 y+1/2,x+1/2,z
Tl1_2_445 -y+1/2,-x+1/2,z
Tl1_2_455 -y+1/2,-x+1/2,z
Tl1_2_465 -y+1/2,-x+1/2,z
Tl1_2_545 -y+1/2,-x+1/2,z
Tl1_2_555 -y+1/2,-x+1/2,z
Tl1_2_565 -y+1/2,-x+1/2,z
Tl1_2_645 -y+1/2,-x+1/2,z
Tl1_2_655 -y+1/2,-x+1/2,z
Tl1_2_665 -y+1/2,-x+1/2,z
Tl1_3_445 y+1/2,x+1/2,z
Tl1_3_455 y+1/2,x+1/2,z
Tl1_3_465 y+1/2,x+1/2,z
Tl1_3_545 y+1/2,x+1/2,z
Tl1_3_555 y+1/2,x+1/2,z
Tl1_3_565 y+1/2,x+1/2,z
Tl1_3_645 y+1/2,x+1/2,z
Tl1_3_655 y+1/2,x+1/2,z
Tl1_3_665 y+1/2,x+1/2,z
Tl1_4_445 -y+1/2,-x+1/2,z
Tl1_4_455 -y+1/2,-x+1/2,z
Tl1_4_465 -y+1/2,-x+1/2,z
Tl1_4_545 -y+1/2,-x+1/2,z
Tl1_4_555 -y+1/2,-x+1/2,z
Tl1_4_565 -y+1/2,-x+1/2,z
Tl1_4_645 -y+1/2,-x+1/2,z
Tl1_4_655 -y+1/2,-x+1/2,z
Tl1_4_665 -y+1/2,-x+1/2,z
Tl1_9_444 y+1/2,x+1/2,z
Tl1_9_454 y+1/2,x+1/2,z
Tl1_9_464 y+1/2,x+1/2,z
Tl1_9_544 y+1/2,x+1/2,z
Tl1_9_554 y+1/2,x+1/2,z
Tl1_9_564 y+1/2,x+1/2,z
Tl1_9_644 y+1/2,x+1/2,z
Tl1_9_654 y+1/2,x+1/2,z
Tl1_9_664 y+1/2,x+1/2,z
Tl1_10_444 -y+1/2,-x+1/2,z
Tl1_10_454 -y+1/2,-x+1/2,z
Tl1_10_464 -y+1/2,-x+1/2,z
Tl1_10_544 -y+1/2,-x+1/2,z
Tl1_10_554 -y+1/2,-x+1/2,z
Tl1_10_564 -y+1/2,-x+1/2,z
Tl1_10_644 -y+1/2,-x+1/2,z
Tl1_10_654 -y+1/2,-x+1/2,z
Tl1_10_664 -y+1/2,-x+1/2,z
Tl1_11_444 y+1/2,x+1/2,z
Tl1_11_454 y+1/2,x+1/2,z
Tl1_11_464 y+1/2,x+1/2,z
Tl1_11_544 y+1/2,x+1/2,z
Tl1_11_554 y+1/2,x+1/2,z
Tl1_11_564 y+1/2,x+1/2,z
Tl1_11_644 y+1/2,x+1/2,z
Tl1_11_654 y+1/2,x+1/2,z
Tl1_11_664 y+1/2,x+1/2,z
Tl1_12_444 -y+1/2,-x+1/2,z
Tl1_12_454 -y+1/2,-x+1/2,z
Tl1_12_464 -y+1/2,-x+1/2,z
Tl1_12_544 -y+1/2,-x+1/2,z
Tl1_12_554 -y+1/2,-x+1/2,z
Tl1_12_564 -y+1/2,-x+1/2,z
Tl1_12_644 -y+1/2,-x+1/2,z
Tl1_12_654 -y+1/2,-x+1/2,z
Tl1_12_664 -y+1/2,-x+1/2,z
data_1523050_molecule_1
loop_
_publ_author_name
'Voroshilov, Yu.V.'
'Gurzan, M.I.'
'Kish, Z.Z.'
'Lada, L.V.'
_publ_section_title
;
 Phase equilibria in the Tl-Pb-Te system and crystal structures of Tl4
 B(IV) X3 and Tl9 B(V) X5 compounds
;
_journal_name_full
'Izvestiya Akademii Nauk SSSR, Neorganicheskie Materialy'
_journal_page_first              1479
_journal_page_last               1484
_journal_volume                  24
_journal_year                    1988
_cod_src_chemical_formula_sum    'Sn Te3 Tl4'
_cell_angle_alpha                90
_cell_angle_beta                 90
_cell_angle_gamma                90
_cell_length_a                   8.836
_cell_length_b                   8.836
_cell_length_c                   13.052
_audit_creation_method
'Id: cif_molecule 6390 2018-08-19 02:38:17Z Alina_Belova'
_chemical_formula_sum            'Te4 Tl8'
_cod_data_source_file            1523050.cif
_cod_data_source_block           1523050
_cell_formula_units_Z            1
_symmetry_space_group_name_H-M   'P 1'
_cod_molecule_is_polymer         yes
_cod_molecule_polymer_dimension  2
_cod_molecule_polymer_basis      '1;0;0 0;1;0'
loop_
_symmetry_equiv_pos_as_xyz
'x, y, z'
loop_
_atom_site_label
_atom_site_type_symbol
_atom_site_fract_x
_atom_site_fract_y
_atom_site_fract_z
_atom_site_U_iso_or_equiv
_atom_site_occupancy
Te2_5_445 Te-2 -0.666000 -0.834000 0.500000 0.0 1
Te2_5_455 Te-2 -0.666000 0.166000 0.500000 0.0 1
Te2_5_465 Te-2 -0.666000 1.166000 0.500000 0.0 1
Te2_5_545 Te-2 0.334000 -0.834000 0.500000 0.0 1
Te2_5_555 Te-2 0.334000 0.166000 0.500000 0.0 1
Te2_5_565 Te-2 0.334000 1.166000 0.500000 0.0 1
Te2_5_645 Te-2 1.334000 -0.834000 0.500000 0.0 1
Te2_5_655 Te-2 1.334000 0.166000 0.500000 0.0 1
Te2_5_665 Te-2 1.334000 1.166000 0.500000 0.0 1
Te2_6_445 Te-2 -0.166000 -0.666000 0.500000 0.0 1
Te2_6_455 Te-2 -0.166000 0.334000 0.500000 0.0 1
Te2_6_465 Te-2 -0.166000 1.334000 0.500000 0.0 1
Te2_6_545 Te-2 0.834000 -0.666000 0.500000 0.0 1
Te2_6_555 Te-2 0.834000 0.334000 0.500000 0.0 1
Te2_6_565 Te-2 0.834000 1.334000 0.500000 0.0 1
Te2_6_645 Te-2 1.834000 -0.666000 0.500000 0.0 1
Te2_6_655 Te-2 1.834000 0.334000 0.500000 0.0 1
Te2_6_665 Te-2 1.834000 1.334000 0.500000 0.0 1
Te2_7_445 Te-2 -0.334000 -0.166000 0.500000 0.0 1
Te2_7_455 Te-2 -0.334000 0.834000 0.500000 0.0 1
Te2_7_465 Te-2 -0.334000 1.834000 0.500000 0.0 1
Te2_7_545 Te-2 0.666000 -0.166000 0.500000 0.0 1
Te2_7_555 Te-2 0.666000 0.834000 0.500000 0.0 1
Te2_7_565 Te-2 0.666000 1.834000 0.500000 0.0 1
Te2_7_645 Te-2 1.666000 -0.166000 0.500000 0.0 1
Te2_7_655 Te-2 1.666000 0.834000 0.500000 0.0 1
Te2_7_665 Te-2 1.666000 1.834000 0.500000 0.0 1
Te2_8_445 Te-2 -0.834000 -0.334000 0.500000 0.0 1
Te2_8_455 Te-2 -0.834000 0.666000 0.500000 0.0 1
Te2_8_465 Te-2 -0.834000 1.666000 0.500000 0.0 1
Te2_8_545 Te-2 0.166000 -0.334000 0.500000 0.0 1
Te2_8_555 Te-2 0.166000 0.666000 0.500000 0.0 1
Te2_8_565 Te-2 0.166000 1.666000 0.500000 0.0 1
Te2_8_645 Te-2 1.166000 -0.334000 0.500000 0.0 1
Te2_8_655 Te-2 1.166000 0.666000 0.500000 0.0 1
Te2_8_665 Te-2 1.166000 1.666000 0.500000 0.0 1
Tl1_5_445 Tl+1 -0.854200 -0.645800 0.364000 0.0 1
Tl1_5_455 Tl+1 -0.854200 0.354200 0.364000 0.0 1
Tl1_5_465 Tl+1 -0.854200 1.354200 0.364000 0.0 1
Tl1_5_545 Tl+1 0.145800 -0.645800 0.364000 0.0 1
Tl1_5_555 Tl+1 0.145800 0.354200 0.364000 0.0 1
Tl1_5_565 Tl+1 0.145800 1.354200 0.364000 0.0 1
Tl1_5_645 Tl+1 1.145800 -0.645800 0.364000 0.0 1
Tl1_5_655 Tl+1 1.145800 0.354200 0.364000 0.0 1
Tl1_5_665 Tl+1 1.145800 1.354200 0.364000 0.0 1
Tl1_6_445 Tl+1 -0.354200 -0.854200 0.364000 0.0 1
Tl1_6_455 Tl+1 -0.354200 0.145800 0.364000 0.0 1
Tl1_6_465 Tl+1 -0.354200 1.145800 0.364000 0.0 1
Tl1_6_545 Tl+1 0.645800 -0.854200 0.364000 0.0 1
Tl1_6_555 Tl+1 0.645800 0.145800 0.364000 0.0 1
Tl1_6_565 Tl+1 0.645800 1.145800 0.364000 0.0 1
Tl1_6_645 Tl+1 1.645800 -0.854200 0.364000 0.0 1
Tl1_6_655 Tl+1 1.645800 0.145800 0.364000 0.0 1
Tl1_6_665 Tl+1 1.645800 1.145800 0.364000 0.0 1
Tl1_7_445 Tl+1 -0.145800 -0.354200 0.364000 0.0 1
Tl1_7_455 Tl+1 -0.145800 0.645800 0.364000 0.0 1
Tl1_7_465 Tl+1 -0.145800 1.645800 0.364000 0.0 1
Tl1_7_545 Tl+1 0.854200 -0.354200 0.364000 0.0 1
Tl1_7_555 Tl+1 0.854200 0.645800 0.364000 0.0 1
Tl1_7_565 Tl+1 0.854200 1.645800 0.364000 0.0 1
Tl1_7_645 Tl+1 1.854200 -0.354200 0.364000 0.0 1
Tl1_7_655 Tl+1 1.854200 0.645800 0.364000 0.0 1
Tl1_7_665 Tl+1 1.854200 1.645800 0.364000 0.0 1
Tl1_8_445 Tl+1 -0.645800 -0.145800 0.364000 0.0 1
Tl1_8_455 Tl+1 -0.645800 0.854200 0.364000 0.0 1
Tl1_8_465 Tl+1 -0.645800 1.854200 0.364000 0.0 1
Tl1_8_545 Tl+1 0.354200 -0.145800 0.364000 0.0 1
Tl1_8_555 Tl+1 0.354200 0.854200 0.364000 0.0 1
Tl1_8_565 Tl+1 0.354200 1.854200 0.364000 0.0 1
Tl1_8_645 Tl+1 1.354200 -0.145800 0.364000 0.0 1
Tl1_8_655 Tl+1 1.354200 0.854200 0.364000 0.0 1
Tl1_8_665 Tl+1 1.354200 1.854200 0.364000 0.0 1
Tl1_13_445 Tl+1 -0.145800 -0.354200 0.636000 0.0 1
Tl1_13_455 Tl+1 -0.145800 0.645800 0.636000 0.0 1
Tl1_13_465 Tl+1 -0.145800 1.645800 0.636000 0.0 1
Tl1_13_545 Tl+1 0.854200 -0.354200 0.636000 0.0 1
Tl1_13_555 Tl+1 0.854200 0.645800 0.636000 0.0 1
Tl1_13_565 Tl+1 0.854200 1.645800 0.636000 0.0 1
Tl1_13_645 Tl+1 1.854200 -0.354200 0.636000 0.0 1
Tl1_13_655 Tl+1 1.854200 0.645800 0.636000 0.0 1
Tl1_13_665 Tl+1 1.854200 1.645800 0.636000 0.0 1
Tl1_14_445 Tl+1 -0.645800 -0.145800 0.636000 0.0 1
Tl1_14_455 Tl+1 -0.645800 0.854200 0.636000 0.0 1
Tl1_14_465 Tl+1 -0.645800 1.854200 0.636000 0.0 1
Tl1_14_545 Tl+1 0.354200 -0.145800 0.636000 0.0 1
Tl1_14_555 Tl+1 0.354200 0.854200 0.636000 0.0 1
Tl1_14_565 Tl+1 0.354200 1.854200 0.636000 0.0 1
Tl1_14_645 Tl+1 1.354200 -0.145800 0.636000 0.0 1
Tl1_14_655 Tl+1 1.354200 0.854200 0.636000 0.0 1
Tl1_14_665 Tl+1 1.354200 1.854200 0.636000 0.0 1
Tl1_15_445 Tl+1 -0.854200 -0.645800 0.636000 0.0 1
Tl1_15_455 Tl+1 -0.854200 0.354200 0.636000 0.0 1
Tl1_15_465 Tl+1 -0.854200 1.354200 0.636000 0.0 1
Tl1_15_545 Tl+1 0.145800 -0.645800 0.636000 0.0 1
Tl1_15_555 Tl+1 0.145800 0.354200 0.636000 0.0 1
Tl1_15_565 Tl+1 0.145800 1.354200 0.636000 0.0 1
Tl1_15_645 Tl+1 1.145800 -0.645800 0.636000 0.0 1
Tl1_15_655 Tl+1 1.145800 0.354200 0.636000 0.0 1
Tl1_15_665 Tl+1 1.145800 1.354200 0.636000 0.0 1
Tl1_16_445 Tl+1 -0.354200 -0.854200 0.636000 0.0 1
Tl1_16_455 Tl+1 -0.354200 0.145800 0.636000 0.0 1
Tl1_16_465 Tl+1 -0.354200 1.145800 0.636000 0.0 1
Tl1_16_545 Tl+1 0.645800 -0.854200 0.636000 0.0 1
Tl1_16_555 Tl+1 0.645800 0.145800 0.636000 0.0 1
Tl1_16_565 Tl+1 0.645800 1.145800 0.636000 0.0 1
Tl1_16_645 Tl+1 1.645800 -0.854200 0.636000 0.0 1
Tl1_16_655 Tl+1 1.645800 0.145800 0.636000 0.0 1
Tl1_16_665 Tl+1 1.645800 1.145800 0.636000 0.0 1
loop_
_cod_molecule_atom_label
_cod_molecule_atom_orig_label
_cod_molecule_atom_symmetry
_cod_molecule_atom_symop_id
_cod_molecule_atom_symop_xyz
_cod_molecule_atom_transl_id
_cod_molecule_atom_transl_x
_cod_molecule_atom_transl_y
_cod_molecule_atom_transl_z
_cod_molecule_atom_mult
_cod_molecule_atom_mult_ratio
Te2_5_445 Te2 5_445 5 x,-y,-z+1/2 445 -1 -1 0 8 4
Te2_5_455 Te2 5_455 5 x,-y,-z+1/2 455 -1 0 0 8 4
Te2_5_465 Te2 5_465 5 x,-y,-z+1/2 465 -1 1 0 8 4
Te2_5_545 Te2 5_545 5 x,-y,-z+1/2 545 0 -1 0 8 4
Te2_5_555 Te2 5_555 5 x,-y,-z+1/2 555 0 0 0 8 4
Te2_5_565 Te2 5_565 5 x,-y,-z+1/2 565 0 1 0 8 4
Te2_5_645 Te2 5_645 5 x,-y,-z+1/2 645 1 -1 0 8 4
Te2_5_655 Te2 5_655 5 x,-y,-z+1/2 655 1 0 0 8 4
Te2_5_665 Te2 5_665 5 x,-y,-z+1/2 665 1 1 0 8 4
Te2_6_445 Te2 6_445 6 y,x,-z+1/2 445 -1 -1 0 8 4
Te2_6_455 Te2 6_455 6 y,x,-z+1/2 455 -1 0 0 8 4
Te2_6_465 Te2 6_465 6 y,x,-z+1/2 465 -1 1 0 8 4
Te2_6_545 Te2 6_545 6 y,x,-z+1/2 545 0 -1 0 8 4
Te2_6_555 Te2 6_555 6 y,x,-z+1/2 555 0 0 0 8 4
Te2_6_565 Te2 6_565 6 y,x,-z+1/2 565 0 1 0 8 4
Te2_6_645 Te2 6_645 6 y,x,-z+1/2 645 1 -1 0 8 4
Te2_6_655 Te2 6_655 6 y,x,-z+1/2 655 1 0 0 8 4
Te2_6_665 Te2 6_665 6 y,x,-z+1/2 665 1 1 0 8 4
Te2_7_445 Te2 7_445 7 -x,y,-z+1/2 445 -1 -1 0 8 4
Te2_7_455 Te2 7_455 7 -x,y,-z+1/2 455 -1 0 0 8 4
Te2_7_465 Te2 7_465 7 -x,y,-z+1/2 465 -1 1 0 8 4
Te2_7_545 Te2 7_545 7 -x,y,-z+1/2 545 0 -1 0 8 4
Te2_7_555 Te2 7_555 7 -x,y,-z+1/2 555 0 0 0 8 4
Te2_7_565 Te2 7_565 7 -x,y,-z+1/2 565 0 1 0 8 4
Te2_7_645 Te2 7_645 7 -x,y,-z+1/2 645 1 -1 0 8 4
Te2_7_655 Te2 7_655 7 -x,y,-z+1/2 655 1 0 0 8 4
Te2_7_665 Te2 7_665 7 -x,y,-z+1/2 665 1 1 0 8 4
Te2_8_445 Te2 8_445 8 -y,-x,-z+1/2 445 -1 -1 0 8 4
Te2_8_455 Te2 8_455 8 -y,-x,-z+1/2 455 -1 0 0 8 4
Te2_8_465 Te2 8_465 8 -y,-x,-z+1/2 465 -1 1 0 8 4
Te2_8_545 Te2 8_545 8 -y,-x,-z+1/2 545 0 -1 0 8 4
Te2_8_555 Te2 8_555 8 -y,-x,-z+1/2 555 0 0 0 8 4
Te2_8_565 Te2 8_565 8 -y,-x,-z+1/2 565 0 1 0 8 4
Te2_8_645 Te2 8_645 8 -y,-x,-z+1/2 645 1 -1 0 8 4
Te2_8_655 Te2 8_655 8 -y,-x,-z+1/2 655 1 0 0 8 4
Te2_8_665 Te2 8_665 8 -y,-x,-z+1/2 665 1 1 0 8 4
Tl1_5_445 Tl1 5_445 5 x,-y,-z+1/2 445 -1 -1 0 16 2
Tl1_5_455 Tl1 5_455 5 x,-y,-z+1/2 455 -1 0 0 16 2
Tl1_5_465 Tl1 5_465 5 x,-y,-z+1/2 465 -1 1 0 16 2
Tl1_5_545 Tl1 5_545 5 x,-y,-z+1/2 545 0 -1 0 16 2
Tl1_5_555 Tl1 5_555 5 x,-y,-z+1/2 555 0 0 0 16 2
Tl1_5_565 Tl1 5_565 5 x,-y,-z+1/2 565 0 1 0 16 2
Tl1_5_645 Tl1 5_645 5 x,-y,-z+1/2 645 1 -1 0 16 2
Tl1_5_655 Tl1 5_655 5 x,-y,-z+1/2 655 1 0 0 16 2
Tl1_5_665 Tl1 5_665 5 x,-y,-z+1/2 665 1 1 0 16 2
Tl1_6_445 Tl1 6_445 6 y,x,-z+1/2 445 -1 -1 0 16 2
Tl1_6_455 Tl1 6_455 6 y,x,-z+1/2 455 -1 0 0 16 2
Tl1_6_465 Tl1 6_465 6 y,x,-z+1/2 465 -1 1 0 16 2
Tl1_6_545 Tl1 6_545 6 y,x,-z+1/2 545 0 -1 0 16 2
Tl1_6_555 Tl1 6_555 6 y,x,-z+1/2 555 0 0 0 16 2
Tl1_6_565 Tl1 6_565 6 y,x,-z+1/2 565 0 1 0 16 2
Tl1_6_645 Tl1 6_645 6 y,x,-z+1/2 645 1 -1 0 16 2
Tl1_6_655 Tl1 6_655 6 y,x,-z+1/2 655 1 0 0 16 2
Tl1_6_665 Tl1 6_665 6 y,x,-z+1/2 665 1 1 0 16 2
Tl1_7_445 Tl1 7_445 7 -x,y,-z+1/2 445 -1 -1 0 16 2
Tl1_7_455 Tl1 7_455 7 -x,y,-z+1/2 455 -1 0 0 16 2
Tl1_7_465 Tl1 7_465 7 -x,y,-z+1/2 465 -1 1 0 16 2
Tl1_7_545 Tl1 7_545 7 -x,y,-z+1/2 545 0 -1 0 16 2
Tl1_7_555 Tl1 7_555 7 -x,y,-z+1/2 555 0 0 0 16 2
Tl1_7_565 Tl1 7_565 7 -x,y,-z+1/2 565 0 1 0 16 2
Tl1_7_645 Tl1 7_645 7 -x,y,-z+1/2 645 1 -1 0 16 2
Tl1_7_655 Tl1 7_655 7 -x,y,-z+1/2 655 1 0 0 16 2
Tl1_7_665 Tl1 7_665 7 -x,y,-z+1/2 665 1 1 0 16 2
Tl1_8_445 Tl1 8_445 8 -y,-x,-z+1/2 445 -1 -1 0 16 2
Tl1_8_455 Tl1 8_455 8 -y,-x,-z+1/2 455 -1 0 0 16 2
Tl1_8_465 Tl1 8_465 8 -y,-x,-z+1/2 465 -1 1 0 16 2
Tl1_8_545 Tl1 8_545 8 -y,-x,-z+1/2 545 0 -1 0 16 2
Tl1_8_555 Tl1 8_555 8 -y,-x,-z+1/2 555 0 0 0 16 2
Tl1_8_565 Tl1 8_565 8 -y,-x,-z+1/2 565 0 1 0 16 2
Tl1_8_645 Tl1 8_645 8 -y,-x,-z+1/2 645 1 -1 0 16 2
Tl1_8_655 Tl1 8_655 8 -y,-x,-z+1/2 655 1 0 0 16 2
Tl1_8_665 Tl1 8_665 8 -y,-x,-z+1/2 665 1 1 0 16 2
Tl1_13_445 Tl1 13_445 13 -x,y,z+1/2 445 -1 -1 0 16 2
Tl1_13_455 Tl1 13_455 13 -x,y,z+1/2 455 -1 0 0 16 2
Tl1_13_465 Tl1 13_465 13 -x,y,z+1/2 465 -1 1 0 16 2
Tl1_13_545 Tl1 13_545 13 -x,y,z+1/2 545 0 -1 0 16 2
Tl1_13_555 Tl1 13_555 13 -x,y,z+1/2 555 0 0 0 16 2
Tl1_13_565 Tl1 13_565 13 -x,y,z+1/2 565 0 1 0 16 2
Tl1_13_645 Tl1 13_645 13 -x,y,z+1/2 645 1 -1 0 16 2
Tl1_13_655 Tl1 13_655 13 -x,y,z+1/2 655 1 0 0 16 2
Tl1_13_665 Tl1 13_665 13 -x,y,z+1/2 665 1 1 0 16 2
Tl1_14_445 Tl1 14_445 14 -y,-x,z+1/2 445 -1 -1 0 16 2
Tl1_14_455 Tl1 14_455 14 -y,-x,z+1/2 455 -1 0 0 16 2
Tl1_14_465 Tl1 14_465 14 -y,-x,z+1/2 465 -1 1 0 16 2
Tl1_14_545 Tl1 14_545 14 -y,-x,z+1/2 545 0 -1 0 16 2
Tl1_14_555 Tl1 14_555 14 -y,-x,z+1/2 555 0 0 0 16 2
Tl1_14_565 Tl1 14_565 14 -y,-x,z+1/2 565 0 1 0 16 2
Tl1_14_645 Tl1 14_645 14 -y,-x,z+1/2 645 1 -1 0 16 2
Tl1_14_655 Tl1 14_655 14 -y,-x,z+1/2 655 1 0 0 16 2
Tl1_14_665 Tl1 14_665 14 -y,-x,z+1/2 665 1 1 0 16 2
Tl1_15_445 Tl1 15_445 15 x,-y,z+1/2 445 -1 -1 0 16 2
Tl1_15_455 Tl1 15_455 15 x,-y,z+1/2 455 -1 0 0 16 2
Tl1_15_465 Tl1 15_465 15 x,-y,z+1/2 465 -1 1 0 16 2
Tl1_15_545 Tl1 15_545 15 x,-y,z+1/2 545 0 -1 0 16 2
Tl1_15_555 Tl1 15_555 15 x,-y,z+1/2 555 0 0 0 16 2
Tl1_15_565 Tl1 15_565 15 x,-y,z+1/2 565 0 1 0 16 2
Tl1_15_645 Tl1 15_645 15 x,-y,z+1/2 645 1 -1 0 16 2
Tl1_15_655 Tl1 15_655 15 x,-y,z+1/2 655 1 0 0 16 2
Tl1_15_665 Tl1 15_665 15 x,-y,z+1/2 665 1 1 0 16 2
Tl1_16_445 Tl1 16_445 16 y,x,z+1/2 445 -1 -1 0 16 2
Tl1_16_455 Tl1 16_455 16 y,x,z+1/2 455 -1 0 0 16 2
Tl1_16_465 Tl1 16_465 16 y,x,z+1/2 465 -1 1 0 16 2
Tl1_16_545 Tl1 16_545 16 y,x,z+1/2 545 0 -1 0 16 2
Tl1_16_555 Tl1 16_555 16 y,x,z+1/2 555 0 0 0 16 2
Tl1_16_565 Tl1 16_565 16 y,x,z+1/2 565 0 1 0 16 2
Tl1_16_645 Tl1 16_645 16 y,x,z+1/2 645 1 -1 0 16 2
Tl1_16_655 Tl1 16_655 16 y,x,z+1/2 655 1 0 0 16 2
Tl1_16_665 Tl1 16_665 16 y,x,z+1/2 665 1 1 0 16 2
loop_
_cod_molecule_transform_label
_cod_molecule_transform_symop
Te2_5_445 x,y,-z
Te2_5_445 -y+1/2,-x+1/2,-z
Te2_5_445 -y+1/2,-x+1/2,z
Te2_5_455 x,y,-z
Te2_5_455 -y+1/2,-x+1/2,-z
Te2_5_455 -y+1/2,-x+1/2,z
Te2_5_465 x,y,-z
Te2_5_465 -y+1/2,-x+1/2,-z
Te2_5_465 -y+1/2,-x+1/2,z
Te2_5_545 x,y,-z
Te2_5_545 -y+1/2,-x+1/2,-z
Te2_5_545 -y+1/2,-x+1/2,z
Te2_5_555 x,y,-z
Te2_5_555 -y+1/2,-x+1/2,-z
Te2_5_555 -y+1/2,-x+1/2,z
Te2_5_565 x,y,-z
Te2_5_565 -y+1/2,-x+1/2,-z
Te2_5_565 -y+1/2,-x+1/2,z
Te2_5_645 x,y,-z
Te2_5_645 -y+1/2,-x+1/2,-z
Te2_5_645 -y+1/2,-x+1/2,z
Te2_5_655 x,y,-z
Te2_5_655 -y+1/2,-x+1/2,-z
Te2_5_655 -y+1/2,-x+1/2,z
Te2_5_665 x,y,-z
Te2_5_665 -y+1/2,-x+1/2,-z
Te2_5_665 -y+1/2,-x+1/2,z
Te2_6_445 x,y,-z
Te2_6_445 y+1/2,x+1/2,-z
Te2_6_445 y+1/2,x+1/2,z
Te2_6_455 x,y,-z
Te2_6_455 y+1/2,x+1/2,-z
Te2_6_455 y+1/2,x+1/2,z
Te2_6_465 x,y,-z
Te2_6_465 y+1/2,x+1/2,-z
Te2_6_465 y+1/2,x+1/2,z
Te2_6_545 x,y,-z
Te2_6_545 y+1/2,x+1/2,-z
Te2_6_545 y+1/2,x+1/2,z
Te2_6_555 x,y,-z
Te2_6_555 y+1/2,x+1/2,-z
Te2_6_555 y+1/2,x+1/2,z
Te2_6_565 x,y,-z
Te2_6_565 y+1/2,x+1/2,-z
Te2_6_565 y+1/2,x+1/2,z
Te2_6_645 x,y,-z
Te2_6_645 y+1/2,x+1/2,-z
Te2_6_645 y+1/2,x+1/2,z
Te2_6_655 x,y,-z
Te2_6_655 y+1/2,x+1/2,-z
Te2_6_655 y+1/2,x+1/2,z
Te2_6_665 x,y,-z
Te2_6_665 y+1/2,x+1/2,-z
Te2_6_665 y+1/2,x+1/2,z
Te2_7_445 x,y,-z
Te2_7_445 -y+1/2,-x+1/2,-z
Te2_7_445 -y+1/2,-x+1/2,z
Te2_7_455 x,y,-z
Te2_7_455 -y+1/2,-x+1/2,-z
Te2_7_455 -y+1/2,-x+1/2,z
Te2_7_465 x,y,-z
Te2_7_465 -y+1/2,-x+1/2,-z
Te2_7_465 -y+1/2,-x+1/2,z
Te2_7_545 x,y,-z
Te2_7_545 -y+1/2,-x+1/2,-z
Te2_7_545 -y+1/2,-x+1/2,z
Te2_7_555 x,y,-z
Te2_7_555 -y+1/2,-x+1/2,-z
Te2_7_555 -y+1/2,-x+1/2,z
Te2_7_565 x,y,-z
Te2_7_565 -y+1/2,-x+1/2,-z
Te2_7_565 -y+1/2,-x+1/2,z
Te2_7_645 x,y,-z
Te2_7_645 -y+1/2,-x+1/2,-z
Te2_7_645 -y+1/2,-x+1/2,z
Te2_7_655 x,y,-z
Te2_7_655 -y+1/2,-x+1/2,-z
Te2_7_655 -y+1/2,-x+1/2,z
Te2_7_665 x,y,-z
Te2_7_665 -y+1/2,-x+1/2,-z
Te2_7_665 -y+1/2,-x+1/2,z
Te2_8_445 x,y,-z
Te2_8_445 y+1/2,x+1/2,-z
Te2_8_445 y+1/2,x+1/2,z
Te2_8_455 x,y,-z
Te2_8_455 y+1/2,x+1/2,-z
Te2_8_455 y+1/2,x+1/2,z
Te2_8_465 x,y,-z
Te2_8_465 y+1/2,x+1/2,-z
Te2_8_465 y+1/2,x+1/2,z
Te2_8_545 x,y,-z
Te2_8_545 y+1/2,x+1/2,-z
Te2_8_545 y+1/2,x+1/2,z
Te2_8_555 x,y,-z
Te2_8_555 y+1/2,x+1/2,-z
Te2_8_555 y+1/2,x+1/2,z
Te2_8_565 x,y,-z
Te2_8_565 y+1/2,x+1/2,-z
Te2_8_565 y+1/2,x+1/2,z
Te2_8_645 x,y,-z
Te2_8_645 y+1/2,x+1/2,-z
Te2_8_645 y+1/2,x+1/2,z
Te2_8_655 x,y,-z
Te2_8_655 y+1/2,x+1/2,-z
Te2_8_655 y+1/2,x+1/2,z
Te2_8_665 x,y,-z
Te2_8_665 y+1/2,x+1/2,-z
Te2_8_665 y+1/2,x+1/2,z
Tl1_5_445 -y+1/2,-x+1/2,z
Tl1_5_455 -y+1/2,-x+1/2,z
Tl1_5_465 -y+1/2,-x+1/2,z
Tl1_5_545 -y+1/2,-x+1/2,z
Tl1_5_555 -y+1/2,-x+1/2,z
Tl1_5_565 -y+1/2,-x+1/2,z
Tl1_5_645 -y+1/2,-x+1/2,z
Tl1_5_655 -y+1/2,-x+1/2,z
Tl1_5_665 -y+1/2,-x+1/2,z
Tl1_6_445 y+1/2,x+1/2,z
Tl1_6_455 y+1/2,x+1/2,z
Tl1_6_465 y+1/2,x+1/2,z
Tl1_6_545 y+1/2,x+1/2,z
Tl1_6_555 y+1/2,x+1/2,z
Tl1_6_565 y+1/2,x+1/2,z
Tl1_6_645 y+1/2,x+1/2,z
Tl1_6_655 y+1/2,x+1/2,z
Tl1_6_665 y+1/2,x+1/2,z
Tl1_7_445 -y+1/2,-x+1/2,z
Tl1_7_455 -y+1/2,-x+1/2,z
Tl1_7_465 -y+1/2,-x+1/2,z
Tl1_7_545 -y+1/2,-x+1/2,z
Tl1_7_555 -y+1/2,-x+1/2,z
Tl1_7_565 -y+1/2,-x+1/2,z
Tl1_7_645 -y+1/2,-x+1/2,z
Tl1_7_655 -y+1/2,-x+1/2,z
Tl1_7_665 -y+1/2,-x+1/2,z
Tl1_8_445 y+1/2,x+1/2,z
Tl1_8_455 y+1/2,x+1/2,z
Tl1_8_465 y+1/2,x+1/2,z
Tl1_8_545 y+1/2,x+1/2,z
Tl1_8_555 y+1/2,x+1/2,z
Tl1_8_565 y+1/2,x+1/2,z
Tl1_8_645 y+1/2,x+1/2,z
Tl1_8_655 y+1/2,x+1/2,z
Tl1_8_665 y+1/2,x+1/2,z
Tl1_13_445 -y+1/2,-x+1/2,z
Tl1_13_455 -y+1/2,-x+1/2,z
Tl1_13_465 -y+1/2,-x+1/2,z
Tl1_13_545 -y+1/2,-x+1/2,z
Tl1_13_555 -y+1/2,-x+1/2,z
Tl1_13_565 -y+1/2,-x+1/2,z
Tl1_13_645 -y+1/2,-x+1/2,z
Tl1_13_655 -y+1/2,-x+1/2,z
Tl1_13_665 -y+1/2,-x+1/2,z
Tl1_14_445 y+1/2,x+1/2,z
Tl1_14_455 y+1/2,x+1/2,z
Tl1_14_465 y+1/2,x+1/2,z
Tl1_14_545 y+1/2,x+1/2,z
Tl1_14_555 y+1/2,x+1/2,z
Tl1_14_565 y+1/2,x+1/2,z
Tl1_14_645 y+1/2,x+1/2,z
Tl1_14_655 y+1/2,x+1/2,z
Tl1_14_665 y+1/2,x+1/2,z
Tl1_15_445 -y+1/2,-x+1/2,z
Tl1_15_455 -y+1/2,-x+1/2,z
Tl1_15_465 -y+1/2,-x+1/2,z
Tl1_15_545 -y+1/2,-x+1/2,z
Tl1_15_555 -y+1/2,-x+1/2,z
Tl1_15_565 -y+1/2,-x+1/2,z
Tl1_15_645 -y+1/2,-x+1/2,z
Tl1_15_655 -y+1/2,-x+1/2,z
Tl1_15_665 -y+1/2,-x+1/2,z
Tl1_16_445 y+1/2,x+1/2,z
Tl1_16_455 y+1/2,x+1/2,z
Tl1_16_465 y+1/2,x+1/2,z
Tl1_16_545 y+1/2,x+1/2,z
Tl1_16_555 y+1/2,x+1/2,z
Tl1_16_565 y+1/2,x+1/2,z
Tl1_16_645 y+1/2,x+1/2,z
Tl1_16_655 y+1/2,x+1/2,z
Tl1_16_665 y+1/2,x+1/2,z
data_1523050_molecule_2
loop_
_publ_author_name
'Voroshilov, Yu.V.'
'Gurzan, M.I.'
'Kish, Z.Z.'
'Lada, L.V.'
_publ_section_title
;
 Phase equilibria in the Tl-Pb-Te system and crystal structures of Tl4
 B(IV) X3 and Tl9 B(V) X5 compounds
;
_journal_name_full
'Izvestiya Akademii Nauk SSSR, Neorganicheskie Materialy'
_journal_page_first              1479
_journal_page_last               1484
_journal_volume                  24
_journal_year                    1988
_cod_src_chemical_formula_sum    'Sn Te3 Tl4'
_cell_angle_alpha                90
_cell_angle_beta                 90
_cell_angle_gamma                90
_cell_length_a                   8.836
_cell_length_b                   8.836
_cell_length_c                   13.052
_audit_creation_method
'Id: cif_molecule 6390 2018-08-19 02:38:17Z Alina_Belova'
_chemical_formula_sum            'Sn2 Te2'
_cod_data_source_file            1523050.cif
_cod_data_source_block           1523050
_cell_formula_units_Z            1
_symmetry_space_group_name_H-M   'P 1'
_cod_molecule_is_polymer         yes
_cod_molecule_polymer_dimension  1
_cod_molecule_polymer_basis      0;0;1
loop_
_symmetry_equiv_pos_as_xyz
'x, y, z'
loop_
_atom_site_label
_atom_site_type_symbol
_atom_site_fract_x
_atom_site_fract_y
_atom_site_fract_z
_atom_site_U_iso_or_equiv
_atom_site_occupancy
Sn1 Sn+2 0.000000 0.000000 0.000000 0.0 1
Te1 Te-2 0.000000 0.000000 0.250000 0.0 1
Sn1_1_554 Sn+2 0.000000 0.000000 -1.000000 0.0 1
Sn1_1_556 Sn+2 0.000000 0.000000 1.000000 0.0 1
Sn1_5_554 Sn+2 0.000000 0.000000 -0.500000 0.0 1
Sn1_5_555 Sn+2 0.000000 0.000000 0.500000 0.0 1
Sn1_5_556 Sn+2 0.000000 0.000000 1.500000 0.0 1
Te1_1_554 Te-2 0.000000 0.000000 -0.750000 0.0 1
Te1_1_556 Te-2 0.000000 0.000000 1.250000 0.0 1
Te1_9_554 Te-2 0.000000 0.000000 -0.250000 0.0 1
Te1_9_555 Te-2 0.000000 0.000000 0.750000 0.0 1
Te1_9_556 Te-2 0.000000 0.000000 1.750000 0.0 1
loop_
_cod_molecule_atom_label
_cod_molecule_atom_orig_label
_cod_molecule_atom_symmetry
_cod_molecule_atom_symop_id
_cod_molecule_atom_symop_xyz
_cod_molecule_atom_transl_id
_cod_molecule_atom_transl_x
_cod_molecule_atom_transl_y
_cod_molecule_atom_transl_z
_cod_molecule_atom_mult
_cod_molecule_atom_mult_ratio
Sn1 Sn1 1_555 1 x,y,z 555 0 0 0 4 8
Te1 Te1 1_555 1 x,y,z 555 0 0 0 4 8
Sn1_1_554 Sn1 1_554 1 x,y,z 554 0 0 -1 4 8
Sn1_1_556 Sn1 1_556 1 x,y,z 556 0 0 1 4 8
Sn1_5_554 Sn1 5_554 5 x,-y,-z+1/2 554 0 0 -1 4 8
Sn1_5_555 Sn1 5_555 5 x,-y,-z+1/2 555 0 0 0 4 8
Sn1_5_556 Sn1 5_556 5 x,-y,-z+1/2 556 0 0 1 4 8
Te1_1_554 Te1 1_554 1 x,y,z 554 0 0 -1 4 8
Te1_1_556 Te1 1_556 1 x,y,z 556 0 0 1 4 8
Te1_9_554 Te1 9_554 9 -x,-y,-z 554 0 0 -1 4 8
Te1_9_555 Te1 9_555 9 -x,-y,-z 555 0 0 0 4 8
Te1_9_556 Te1 9_556 9 -x,-y,-z 556 0 0 1 4 8
loop_
_cod_molecule_transform_label
_cod_molecule_transform_symop
Sn1 -y,x,z
Sn1 -x,-y,z
Sn1 y,-x,z
Sn1 -x,-y,-z
Sn1 y,-x,-z
Sn1 x,y,-z
Sn1 -y,x,-z
Te1 -y,x,z
Te1 -x,-y,z
Te1 y,-x,z
Te1 x,-y,-z+1/2
Te1 y,x,-z+1/2
Te1 -x,y,-z+1/2
Te1 -y,-x,-z+1/2
Sn1_1_554 -y,x,z
Sn1_1_554 -x,-y,z
Sn1_1_554 y,-x,z
Sn1_1_554 -x,-y,-z
Sn1_1_554 y,-x,-z
Sn1_1_554 x,y,-z
Sn1_1_554 -y,x,-z
Sn1_1_556 -y,x,z
Sn1_1_556 -x,-y,z
Sn1_1_556 y,-x,z
Sn1_1_556 -x,-y,-z
Sn1_1_556 y,-x,-z
Sn1_1_556 x,y,-z
Sn1_1_556 -y,x,-z
Sn1_5_554 y,-x,z
Sn1_5_554 -x,-y,z
Sn1_5_554 -y,x,z
Sn1_5_554 -x,-y,-z
Sn1_5_554 -y,x,-z
Sn1_5_554 x,y,-z
Sn1_5_554 y,-x,-z
Sn1_5_555 y,-x,z
Sn1_5_555 -x,-y,z
Sn1_5_555 -y,x,z
Sn1_5_555 -x,-y,-z
Sn1_5_555 -y,x,-z
Sn1_5_555 x,y,-z
Sn1_5_555 y,-x,-z
Sn1_5_556 y,-x,z
Sn1_5_556 -x,-y,z
Sn1_5_556 -y,x,z
Sn1_5_556 -x,-y,-z
Sn1_5_556 -y,x,-z
Sn1_5_556 x,y,-z
Sn1_5_556 y,-x,-z
Te1_1_554 -y,x,z
Te1_1_554 -x,-y,z
Te1_1_554 y,-x,z
Te1_1_554 x,-y,-z+1/2
Te1_1_554 y,x,-z+1/2
Te1_1_554 -x,y,-z+1/2
Te1_1_554 -y,-x,-z+1/2
Te1_1_556 -y,x,z
Te1_1_556 -x,-y,z
Te1_1_556 y,-x,z
Te1_1_556 x,-y,-z+1/2
Te1_1_556 y,x,-z+1/2
Te1_1_556 -x,y,-z+1/2
Te1_1_556 -y,-x,-z+1/2
Te1_9_554 -y,x,z
Te1_9_554 -x,-y,z
Te1_9_554 y,-x,z
Te1_9_554 x,-y,-z+1/2
Te1_9_554 y,x,-z+1/2
Te1_9_554 -x,y,-z+1/2
Te1_9_554 -y,-x,-z+1/2
Te1_9_555 -y,x,z
Te1_9_555 -x,-y,z
Te1_9_555 y,-x,z
Te1_9_555 x,-y,-z+1/2
Te1_9_555 y,x,-z+1/2
Te1_9_555 -x,y,-z+1/2
Te1_9_555 -y,-x,-z+1/2
Te1_9_556 -y,x,z
Te1_9_556 -x,-y,z
Te1_9_556 y,-x,z
Te1_9_556 x,-y,-z+1/2
Te1_9_556 y,x,-z+1/2
Te1_9_556 -x,y,-z+1/2
Te1_9_556 -y,-x,-z+1/2
data_1523050_molecule_3
loop_
_publ_author_name
'Voroshilov, Yu.V.'
'Gurzan, M.I.'
'Kish, Z.Z.'
'Lada, L.V.'
_publ_section_title
;
 Phase equilibria in the Tl-Pb-Te system and crystal structures of Tl4
 B(IV) X3 and Tl9 B(V) X5 compounds
;
_journal_name_full
'Izvestiya Akademii Nauk SSSR, Neorganicheskie Materialy'
_journal_page_first              1479
_journal_page_last               1484
_journal_volume                  24
_journal_year                    1988
_cod_src_chemical_formula_sum    'Sn Te3 Tl4'
_cell_angle_alpha                90
_cell_angle_beta                 90
_cell_angle_gamma                90
_cell_length_a                   8.836
_cell_length_b                   8.836
_cell_length_c                   13.052
_audit_creation_method
'Id: cif_molecule 6390 2018-08-19 02:38:17Z Alina_Belova'
_chemical_formula_sum            'Sn2 Te2'
_cod_data_source_file            1523050.cif
_cod_data_source_block           1523050
_cell_formula_units_Z            1
_symmetry_space_group_name_H-M   'P 1'
_cod_molecule_is_polymer         yes
_cod_molecule_polymer_dimension  1
_cod_molecule_polymer_basis      0;0;1
loop_
_symmetry_equiv_pos_as_xyz
'x, y, z'
loop_
_atom_site_label
_atom_site_type_symbol
_atom_site_fract_x
_atom_site_fract_y
_atom_site_fract_z
_atom_site_U_iso_or_equiv
_atom_site_occupancy
Sn1_17_554 Sn+2 0.500000 0.500000 -0.500000 0.0 1
Sn1_17_555 Sn+2 0.500000 0.500000 0.500000 0.0 1
Sn1_17_556 Sn+2 0.500000 0.500000 1.500000 0.0 1
Sn1_21_554 Sn+2 0.500000 0.500000 -1.000000 0.0 1
Sn1_21_555 Sn+2 0.500000 0.500000 0.000000 0.0 1
Sn1_21_556 Sn+2 0.500000 0.500000 1.000000 0.0 1
Te1_17_554 Te-2 0.500000 0.500000 -0.250000 0.0 1
Te1_17_555 Te-2 0.500000 0.500000 0.750000 0.0 1
Te1_17_556 Te-2 0.500000 0.500000 1.750000 0.0 1
Te1_25_554 Te-2 0.500000 0.500000 -0.750000 0.0 1
Te1_25_555 Te-2 0.500000 0.500000 0.250000 0.0 1
Te1_25_556 Te-2 0.500000 0.500000 1.250000 0.0 1
loop_
_cod_molecule_atom_label
_cod_molecule_atom_orig_label
_cod_molecule_atom_symmetry
_cod_molecule_atom_symop_id
_cod_molecule_atom_symop_xyz
_cod_molecule_atom_transl_id
_cod_molecule_atom_transl_x
_cod_molecule_atom_transl_y
_cod_molecule_atom_transl_z
_cod_molecule_atom_mult
_cod_molecule_atom_mult_ratio
Sn1_17_554 Sn1 17_554 17 x+1/2,y+1/2,z+1/2 554 0 0 -1 4 8
Sn1_17_555 Sn1 17_555 17 x+1/2,y+1/2,z+1/2 555 0 0 0 4 8
Sn1_17_556 Sn1 17_556 17 x+1/2,y+1/2,z+1/2 556 0 0 1 4 8
Sn1_21_554 Sn1 21_554 21 x+1/2,-y+1/2,-z 554 0 0 -1 4 8
Sn1_21_555 Sn1 21_555 21 x+1/2,-y+1/2,-z 555 0 0 0 4 8
Sn1_21_556 Sn1 21_556 21 x+1/2,-y+1/2,-z 556 0 0 1 4 8
Te1_17_554 Te1 17_554 17 x+1/2,y+1/2,z+1/2 554 0 0 -1 4 8
Te1_17_555 Te1 17_555 17 x+1/2,y+1/2,z+1/2 555 0 0 0 4 8
Te1_17_556 Te1 17_556 17 x+1/2,y+1/2,z+1/2 556 0 0 1 4 8
Te1_25_554 Te1 25_554 25 -x+1/2,-y+1/2,-z+1/2 554 0 0 -1 4 8
Te1_25_555 Te1 25_555 25 -x+1/2,-y+1/2,-z+1/2 555 0 0 0 4 8
Te1_25_556 Te1 25_556 25 -x+1/2,-y+1/2,-z+1/2 556 0 0 1 4 8
loop_
_cod_molecule_transform_label
_cod_molecule_transform_symop
Sn1_17_554 -y,x,z
Sn1_17_554 -x,-y,z
Sn1_17_554 y,-x,z
Sn1_17_554 -x,-y,-z
Sn1_17_554 y,-x,-z
Sn1_17_554 x,y,-z
Sn1_17_554 -y,x,-z
Sn1_17_555 -y,x,z
Sn1_17_555 -x,-y,z
Sn1_17_555 y,-x,z
Sn1_17_555 -x,-y,-z
Sn1_17_555 y,-x,-z
Sn1_17_555 x,y,-z
Sn1_17_555 -y,x,-z
Sn1_17_556 -y,x,z
Sn1_17_556 -x,-y,z
Sn1_17_556 y,-x,z
Sn1_17_556 -x,-y,-z
Sn1_17_556 y,-x,-z
Sn1_17_556 x,y,-z
Sn1_17_556 -y,x,-z
Sn1_21_554 y,-x,z
Sn1_21_554 -x,-y,z
Sn1_21_554 -y,x,z
Sn1_21_554 -x,-y,-z
Sn1_21_554 -y,x,-z
Sn1_21_554 x,y,-z
Sn1_21_554 y,-x,-z
Sn1_21_555 y,-x,z
Sn1_21_555 -x,-y,z
Sn1_21_555 -y,x,z
Sn1_21_555 -x,-y,-z
Sn1_21_555 -y,x,-z
Sn1_21_555 x,y,-z
Sn1_21_555 y,-x,-z
Sn1_21_556 y,-x,z
Sn1_21_556 -x,-y,z
Sn1_21_556 -y,x,z
Sn1_21_556 -x,-y,-z
Sn1_21_556 -y,x,-z
Sn1_21_556 x,y,-z
Sn1_21_556 y,-x,-z
Te1_17_554 -y,x,z
Te1_17_554 -x,-y,z
Te1_17_554 y,-x,z
Te1_17_554 x,-y,-z+1/2
Te1_17_554 y,x,-z+1/2
Te1_17_554 -x,y,-z+1/2
Te1_17_554 -y,-x,-z+1/2
Te1_17_555 -y,x,z
Te1_17_555 -x,-y,z
Te1_17_555 y,-x,z
Te1_17_555 x,-y,-z+1/2
Te1_17_555 y,x,-z+1/2
Te1_17_555 -x,y,-z+1/2
Te1_17_555 -y,-x,-z+1/2
Te1_17_556 -y,x,z
Te1_17_556 -x,-y,z
Te1_17_556 y,-x,z
Te1_17_556 x,-y,-z+1/2
Te1_17_556 y,x,-z+1/2
Te1_17_556 -x,y,-z+1/2
Te1_17_556 -y,-x,-z+1/2
Te1_25_554 -y,x,z
Te1_25_554 -x,-y,z
Te1_25_554 y,-x,z
Te1_25_554 x,-y,-z+1/2
Te1_25_554 y,x,-z+1/2
Te1_25_554 -x,y,-z+1/2
Te1_25_554 -y,-x,-z+1/2
Te1_25_555 -y,x,z
Te1_25_555 -x,-y,z
Te1_25_555 y,-x,z
Te1_25_555 x,-y,-z+1/2
Te1_25_555 y,x,-z+1/2
Te1_25_555 -x,y,-z+1/2
Te1_25_555 -y,-x,-z+1/2
Te1_25_556 -y,x,z
Te1_25_556 -x,-y,z
Te1_25_556 y,-x,z
Te1_25_556 x,-y,-z+1/2
Te1_25_556 y,x,-z+1/2
Te1_25_556 -x,y,-z+1/2
Te1_25_556 -y,-x,-z+1/2
