#------------------------------------------------------------------------------
#$Date$
#$Revision$
#$URL$
#------------------------------------------------------------------------------
#
# This file is available in the Crystallography Open Database (COD),
# http://www.crystallography.net/. The original data for this entry
# were provided by IUCr Journals, http://journals.iucr.org/.
#
# The file may be used within the scientific community so long as
# proper attribution is given to the journal article from which the
# data were obtained.
#
data_2105803
loop_
_publ_author_name
'F\'abry, Jan'
'Havl\'ak, Lubom\'ir'
'Du\<sek, Michal'
'Van\<ek, P\<remysl'
'Drahokoupil, Jan'
'Jurek, Karel'
_publ_section_title
;
 Structure determination of KLaS~2~, KPrS~2~, KEuS~2~, KGdS~2~, KLuS~2~,
 KYS~2~, RbYS~2~, NaLaS~2~ and crystal-chemical analysis of the group 1
 and thallium(I) rare-earth sulfide series
;
_journal_coeditor_code           BP5060
_journal_issue                   2
_journal_name_full               'Acta Crystallographica Section B'
_journal_page_first              360
_journal_page_last               371
_journal_paper_doi               10.1107/S2052520613034574
_journal_volume                  70
_journal_year                    2014
_chemical_formula_sum            'K S2 Y'
_chemical_formula_weight         192.1
_chemical_name_common            'Potassium yttrium sulfide'
_space_group_IT_number           166
_symmetry_cell_setting           trigonal
_symmetry_space_group_name_Hall  '-R 3 2"'
_symmetry_space_group_name_H-M   'R -3 m :H'
_cell_angle_alpha                90
_cell_angle_beta                 90
_cell_angle_gamma                120
_cell_formula_units_Z            3
_cell_length_a                   4.0216(5)
_cell_length_b                   4.0216(5)
_cell_length_c                   21.884(4)
_cell_measurement_reflns_used    411
_cell_measurement_temperature    293
_cell_measurement_theta_max      28.8960
_cell_measurement_theta_min      5.6000
_cell_volume                     306.52(8)
_computing_cell_refinement
;
<i>CrysAlis PRO</i>
;
_computing_data_collection
;
<i>CrysAlis PRO</i> (Agilent Technologies, 2012)
;
_computing_data_reduction
;
<i>CrysAlis PRO</i>
;
_computing_molecular_graphics
;
<i>DIAMOND 3.0</i>
(Brandenburg, K. - Crystal Impact, GbR, Bonn,
Germany, 2010).
;
_computing_publication_material
;
JANA2006 (Pet\<r\'i\<cek <i>et. al.</i>, 2006)
;
_computing_structure_refinement
;
JANA2006 (Pet\<r\'i\<cek <i>et. al.</i>, 2006)
;
_computing_structure_solution
;
Superflip (Palatinus & Chapuis, 2007)
;
_diffrn_ambient_temperature      293
_diffrn_detector_area_resol_mean 10.3784
_diffrn_measured_fraction_theta_full 0.98
_diffrn_measured_fraction_theta_max 0.91
_diffrn_measurement_device       'four-cycle diffractometer'
_diffrn_measurement_device_type  'Xcalibur, Gemini ultra'
_diffrn_measurement_method       '\w scans'
_diffrn_radiation_monochromator  graphite
_diffrn_radiation_source         'Enhance (Mo) X-ray Source'
_diffrn_radiation_type           'Mo K\a'
_diffrn_radiation_wavelength     0.7107
_diffrn_reflns_av_R_equivalents  0.0226
_diffrn_reflns_av_sigmaI/netI    0.0224
_diffrn_reflns_limit_h_max       4
_diffrn_reflns_limit_h_min       -5
_diffrn_reflns_limit_k_max       3
_diffrn_reflns_limit_k_min       -4
_diffrn_reflns_limit_l_max       28
_diffrn_reflns_limit_l_min       -28
_diffrn_reflns_number            512
_diffrn_reflns_theta_full        27.27
_diffrn_reflns_theta_max         29.33
_diffrn_reflns_theta_min         5.59
_diffrn_standards_number         0
_exptl_absorpt_coefficient_mu    16.065
_exptl_absorpt_correction_T_max  0.477
_exptl_absorpt_correction_T_min  0.229
_exptl_absorpt_correction_type   analytical
_exptl_absorpt_process_details
;
<i>CrysAlis PRO</i>, Agilent Technologies (2012),
Analytical numeric absorption correction using a multifaceted crystal
model based on expressions derived by R.C. Clark & J.S. Reid (1995).
;
_exptl_crystal_colour            colourless
_exptl_crystal_density_diffrn    3.1214
_exptl_crystal_description       plate
_exptl_crystal_F_000             270
_exptl_crystal_size_max          0.1757
_exptl_crystal_size_mid          0.1115
_exptl_crystal_size_min          0.0628
_refine_diff_density_max         0.43
_refine_diff_density_min         -0.69
_refine_ls_extinction_coef       68E1(6)
_refine_ls_extinction_method
'B-C type 1 Gaussian isotropic (Becker & Coppens, 1974)'
_refine_ls_goodness_of_fit_ref   1.45
_refine_ls_number_constraints    0
_refine_ls_number_parameters     9
_refine_ls_number_reflns         125
_refine_ls_number_restraints     0
_refine_ls_R_factor_all          0.0205
_refine_ls_R_factor_gt           0.0197
_refine_ls_shift/su_max          0.0014
_refine_ls_shift/su_mean         0.0005
_refine_ls_structure_factor_coef Fsqd
_refine_ls_weighting_details     w=1/(\s^2^(I)+0.0004I^2^)
_refine_ls_weighting_scheme      sigma
_refine_ls_wR_factor_gt          0.0494
_refine_ls_wR_factor_ref         0.0499
_reflns_number_gt                121
_reflns_number_total             125
_reflns_threshold_expression     I>3\s(I)
_iucr_refine_instructions_details
;
    3    0    0    1
 5.553606 0.000000 0.000000 0.000000 0.000000 0.000000      100000
 0.000000                                                   0
 0.000000 0.000000 0.000000 0.000000 0.000000 0.000000      000000
 0.068030 0.000000 0.000000 0.000000 0.000000 0.000000      100000
S1        3  2     0.166667 0.000000 0.000000 0.234442
 0.013030 0.013030 0.011091 0.006515 0.000000 0.000000      0001101000
Y1        2  2     0.083333 0.333333 0.666667 0.166667
 0.007630 0.007630 0.008576 0.003815 0.000000 0.000000      0000101000
K1        1  2     0.083333 0.000000 0.000000 0.000000
 0.020225 0.020225 0.014233 0.010112 0.000000 0.000000      0000101000
----------------------------   s.u. block   ----------------------------
 0.037128 0.000000 0.000000 0.000000 0.000000 0.000000
 0.000000
 0.000000 0.000000 0.000000 0.000000 0.000000 0.000000
 0.006350 0.000000 0.000000 0.000000 0.000000 0.000000
S1                 0.000000 0.000000 0.000000 0.000079
 0.000530 0.000530 0.000899 0.000265 0.000000 0.000000
Y1                 0.000000 0.000000 0.000000 0.000000
 0.000374 0.000374 0.000510 0.000187 0.000000 0.000000
K1                 0.000000 0.000000 0.000000 0.000000
 0.000672 0.000672 0.001139 0.000336 0.000000 0.000000
--------------------------   Saved points   ----------------------------
    0
--------------------------   Fourier maxima   --------------------------
    1    1    1
max1      1  1     1.000000 0.101810 0.547663 0.179202      000  0  0  0
     0.44     0.29
max2      1  1     1.000000 0.074749 0.535662 0.922612      000  0  0  0
     0.38     0.21
max3      1  1     1.000000 0.088455 0.547665 0.686695      000  0  0  0
     0.38     0.20
max4      1  1     1.000000 0.089856 0.547682 0.411876      000  0  0  0
     0.43     0.19
max5      1  1     1.000000 0.090277 0.547616 0.137276      000  0  0  0
     0.33     0.17
max6      1  1     1.000000-0.018203 0.202986 0.016491      000  0  0  0
     0.32     0.17
max7      1  1     1.000000 0.098477 0.247627 0.984410      000  0  0  0
     0.31     0.16
max8      1  1     1.000000 0.066152 0.827462 0.984255      000  0  0  0
     0.31     0.16
max9      1  1     1.000000 0.084033 0.547489 0.451555      000  0  0  0
     0.28     0.13
max10     1  1     1.000000 0.000000 0.000000 0.000000      000  0  0  0
     0.26     0.11
--------------------------   Fourier minima   --------------------------
    1    1    1
min1      1  1     1.000000 0.000000 0.000000 0.420967      000  0  0  0
     0.69     0.46
min2      1  1     1.000000 0.000000 0.000000 0.190302      000  0  0  0
     0.48     0.42
min3      1  1     1.000000 0.000000 0.000000 0.145389      000  0  0  0
     0.49     0.39
min4      1  1     1.000000-0.019500 0.020761 0.935464      000  0  0  0
     0.42     0.34
min5      1  1     1.000000 0.000000 0.000000 0.340484      000  0  0  0
     0.50     0.34
min6      1  1     1.000000 0.000000 0.000000 0.383324      000  0  0  0
     0.38     0.30
min7      1  1     1.000000 0.000000 0.000000 0.462120      000  0  0  0
     0.43     0.21
min8      1  1     1.000000 0.000000 0.000000 0.024022      000  0  0  0
     0.42     0.19
min9      1  1     1.000000 0.074943 0.147808 0.165906      000  0  0  0
     0.35     0.16
min10     1  1     1.000000 0.049930 0.093642 0.105282      000  0  0  0
     0.20     0.14
------------------------------------------------------------------------
Version Jana2006
title
cell 4.0216 4.0216 21.884 90 90 120
esdcell 0.0005 0.0005 0.004 0 0 0
spgroup R-3m 166 5
lattice R
symmetry x y z
symmetry -y x-y z
symmetry -x+y -x z
symmetry y x -z
symmetry x-y -y -z
symmetry -x -x+y -z
symmetry -x -y -z
symmetry y -x+y -z
symmetry x-y x -z
symmetry -y -x z
symmetry -x+y y z
symmetry x x-y z
unitsnumb 3
chemform K Y S2
formtab -62
atom K atradius 2.35 color 161033246
atom Y atradius 1.82 color 102152142
atom S atradius 1.04 color 255250000
roundmethod 1
end
*******************************************************************************
contour
end contour
dist
  fullcoor 0 lsttype 1 dmax 5
  bondval K S 2.59 0.37
  bondval Y S 2.48 0.37
end dist
fourier
  maptype 6
end fourier
refine
  fsquare 1
  iext 1 itypex 1 idistr 1 radius 0.01
end refine
;
_cod_data_source_file            bp5060sup1.cif
_cod_data_source_block           VI
_cod_original_sg_symbol_H-M      'R -3 m'
_cod_original_formula_sum        'K1 S2 Y1'
_cod_database_code               2105803
_cod_database_fobs_code          2105803
loop_
_symmetry_equiv_pos_site_id
_symmetry_equiv_pos_as_xyz
1 x,y,z
2 -y,x-y,z
3 -x+y,-x,z
4 y,x,-z
5 x-y,-y,-z
6 -x,-x+y,-z
7 -x,-y,-z
8 y,-x+y,-z
9 x-y,x,-z
10 -y,-x,z
11 -x+y,y,z
12 x,x-y,z
13 x+2/3,y+1/3,z+1/3
14 -y+2/3,x-y+1/3,z+1/3
15 -x+y+2/3,-x+1/3,z+1/3
16 y+2/3,x+1/3,-z+1/3
17 x-y+2/3,-y+1/3,-z+1/3
18 -x+2/3,-x+y+1/3,-z+1/3
19 -x+2/3,-y+1/3,-z+1/3
20 y+2/3,-x+y+1/3,-z+1/3
21 x-y+2/3,x+1/3,-z+1/3
22 -y+2/3,-x+1/3,z+1/3
23 -x+y+2/3,y+1/3,z+1/3
24 x+2/3,x-y+1/3,z+1/3
25 x+1/3,y+2/3,z+2/3
26 -y+1/3,x-y+2/3,z+2/3
27 -x+y+1/3,-x+2/3,z+2/3
28 y+1/3,x+2/3,-z+2/3
29 x-y+1/3,-y+2/3,-z+2/3
30 -x+1/3,-x+y+2/3,-z+2/3
31 -x+1/3,-y+2/3,-z+2/3
32 y+1/3,-x+y+2/3,-z+2/3
33 x-y+1/3,x+2/3,-z+2/3
34 -y+1/3,-x+2/3,z+2/3
35 -x+y+1/3,y+2/3,z+2/3
36 x+1/3,x-y+2/3,z+2/3
loop_
_atom_site_type_symbol
_atom_site_label
_atom_site_fract_x
_atom_site_fract_y
_atom_site_fract_z
_atom_site_U_iso_or_equiv
_atom_site_adp_type
_atom_site_calc_flag
_atom_site_occupancy
_atom_site_symmetry_multiplicity
Y Y1 0.333333 0.666667 0.166667 0.0079(3) Uani d 1 3
K K1 0 0 0 0.0182(6) Uani d 1 3
S S1 0 0 0.23444(8) 0.0124(5) Uani d 1 6
loop_
_atom_site_aniso_label
_atom_site_aniso_U_11
_atom_site_aniso_U_22
_atom_site_aniso_U_33
_atom_site_aniso_U_12
_atom_site_aniso_U_13
_atom_site_aniso_U_23
_atom_site_aniso_type_symbol
Y1 0.0076(4) 0.0076(4) 0.0086(5) 0.00381(19) 0 0 Y
K1 0.0202(7) 0.0202(7) 0.0142(11) 0.0101(3) 0 0 K
S1 0.0130(5) 0.0130(5) 0.0111(9) 0.0065(3) 0 0 S
loop_
_atom_type_symbol
_atom_type_scat_dispersion_real
_atom_type_scat_dispersion_imag
_atom_type_scat_source
K 0.2009 0.2494 'International Tables Vol C tables 4.2.6.8 and 6.1.1.1'
S 0.1246 0.1234 'International Tables Vol C tables 4.2.6.8 and 6.1.1.1'
Y -2.7962 3.5667 'International Tables Vol C tables 4.2.6.8 and 6.1.1.1'
loop_
_exptl_crystal_face_index_h
_exptl_crystal_face_index_k
_exptl_crystal_face_index_l
_exptl_crystal_face_perp_dist
0 -5 11 0.0464
5 -5 8 0.0659
5 0 -4 0.0700
-1 5 -11 0.0689
-5 4 -6 0.0377
-5 0 4 0.0560
0 0 31 0.0399
1 0 -31 0.0135
loop_
_geom_angle_atom_site_label_1
_geom_angle_atom_site_label_2
_geom_angle_atom_site_label_3
_geom_angle_site_symmetry_1
_geom_angle_site_symmetry_3
_geom_angle
S1 Y1 S1 . 1_565 93.74(3)
S1 Y1 S1 . 1_665 93.74(3)
S1 Y1 S1 . 16_455 86.26(3)
S1 Y1 S1 . 16_555 86.26(3)
S1 Y1 S1 . 16_565 180.0(5)
S1 Y1 S1 1_565 1_665 93.74(3)
S1 Y1 S1 1_565 16_455 86.26(3)
S1 Y1 S1 1_565 16_555 180.0(5)
S1 Y1 S1 1_565 16_565 86.26(3)
S1 Y1 S1 1_665 16_455 180.0(5)
S1 Y1 S1 1_665 16_555 86.26(3)
S1 Y1 S1 1_665 16_565 86.26(3)
S1 Y1 S1 16_455 16_555 93.74(3)
S1 Y1 S1 16_455 16_565 93.74(3)
S1 Y1 S1 16_555 16_565 93.74(3)
S1 K1 S1 25_444 25_544 78.62(3)
S1 K1 S1 25_444 25_554 78.62(3)
S1 K1 S1 25_444 16_445 101.38(3)
S1 K1 S1 25_444 16_455 101.38(3)
S1 K1 S1 25_444 16_555 180.0(5)
S1 K1 S1 25_544 25_554 78.62(3)
S1 K1 S1 25_544 16_445 101.38(3)
S1 K1 S1 25_544 16_455 180.0(5)
S1 K1 S1 25_544 16_555 101.38(3)
S1 K1 S1 25_554 16_445 180.0(5)
S1 K1 S1 25_554 16_455 101.38(3)
S1 K1 S1 25_554 16_555 101.38(3)
S1 K1 S1 16_445 16_455 78.62(3)
S1 K1 S1 16_445 16_555 78.62(3)
S1 K1 S1 16_455 16_555 78.62(3)
Y1 S1 Y1 1_445 1_545 93.74(4)
Y1 S1 Y1 1_445 . 93.74(4)
Y1 S1 K1 1_445 13_445 93.371(15)
Y1 S1 K1 1_445 13_455 93.371(13)
Y1 S1 K1 1_445 13_555 169.58(5)
Y1 S1 S1 1_445 16_445 46.87(2)
Y1 S1 S1 1_445 16_455 46.87(2)
Y1 S1 S1 1_445 16_555 95.48(5)
Y1 S1 Y1 1_545 . 93.74(4)
Y1 S1 K1 1_545 13_445 93.371(13)
Y1 S1 K1 1_545 13_455 169.58(5)
Y1 S1 K1 1_545 13_555 93.371(13)
Y1 S1 K1 . 13_445 169.58(5)
Y1 S1 K1 . 13_455 93.371(13)
Y1 S1 K1 . 13_555 93.371(15)
K1 S1 K1 13_445 13_455 78.62(4)
K1 S1 K1 13_445 13_555 78.62(4)
K1 S1 S1 13_445 16_445 94.94(2)
K1 S1 S1 13_445 16_455 139.672(13)
K1 S1 S1 13_445 16_555 139.672(11)
K1 S1 K1 13_455 13_555 78.62(4)
loop_
_geom_bond_atom_site_label_1
_geom_bond_atom_site_label_2
_geom_bond_site_symmetry_2
_geom_bond_distance
Y1 S1 . 2.7552(12)
Y1 S1 1_565 2.7552(10)
Y1 S1 1_665 2.7552(12)
Y1 S1 16_455 2.7552(12)
Y1 S1 16_555 2.7552(10)
Y1 S1 16_565 2.7552(12)
K1 S1 25_444 3.1740(14)
K1 S1 25_544 3.1740(13)
K1 S1 25_554 3.1740(14)
K1 S1 16_445 3.1740(14)
K1 S1 16_455 3.1740(13)
K1 S1 16_555 3.1740(14)
S1 Y1 1_445 2.7552(12)
S1 Y1 1_545 2.7552(10)
S1 Y1 . 2.7552(12)
S1 K1 13_445 3.1740(14)
S1 K1 13_455 3.1740(13)
S1 K1 13_555 3.1740(14)
